# vtk DataFile Version 3.0
SmCo magnet array field distribution
ASCII
DATASET STRUCTURED_POINTS
DIMENSIONS 21 21 21
ORIGIN -80.00000000000001 -80.0 -30.00000000000001
SPACING 8.000000000000002 8.0 3.500000000050735
POINT_DATA 9261
VECTORS B_field float
0.005358785363321542 0.005447617972400081 -0.002252833339495312
0.0060160549989665725 0.006778526989267143 -0.0020204054229746326
0.006608351913357271 0.00835423982115111 -0.0015983205562679543
0.00704667826169184 0.01015571550131899 -0.0009488513102485677
0.007221460334611458 0.012121728700157946 -5.945028004667344e-05
0.007022440215951074 0.01414099203449441 0.0010366937599226996
0.006372001880695853 0.016060258917681303 0.0022484587968852137
0.005257175909775769 0.01771378630428744 0.003434820701878664
0.003739953470318515 0.018964338357715792 0.004433428321899532
0.0019382401010207314 0.01973158414657342 0.00509780872528371
-6.252953657724972e-06 0.019986730043120696 0.00532812424030102
-0.0019474949380067004 0.019726111570666505 0.0050902387725958315
-0.0037417562496581736 0.018956806395205854 0.004422041333819963
-0.00525182753588256 0.017708291207810152 0.0034243067046869614
-0.006362998197154445 0.016059116667975135 0.0022418833965045064
-0.0070137738427714594 0.014144003412680784 0.0010346223669018759
-0.007215530241903753 0.012127111145584202 -5.82303393706191e-05
-0.00704391831996852 0.0101615482581749 -0.0009460162466949486
-0.006608023061295635 0.008359290322700164 -0.001595152661579671
-0.006017124743216091 0.006782337831912603 -0.002017588352582272
-0.005360419784971371 0.005450239165247431 -0.00225059588350452
0.006690038354943572 0.006115638282199536 -0.0019933580662299384
0.007626676358327611 0.007725939403705758 -0.0015011563780828877
0.008494810552764662 0.00965203442528268 -0.0006890019791176282
0.009161066367393455 0.011861949539729673 0.0005096583860560748
0.009456422104956275 0.014259024399571807 0.0021153442089384073
0.009211104456982987 0.01667271597368199 0.00406130369006634
0.008316784082507706 0.018880151700234576 0.011102110613637502
0.006784895318317415 0.020667458749848516 0.008177058527504076
0.004755686039257028 0.021907339147680747 0.009804248202574957
0.002432940056276274 0.02259908445445407 0.010846042453802503
-9.971673841566552e-06 0.022813653629446307 0.011197898255113895
-0.0024469141926302986 0.022591659298354973 0.010832159973039534
-0.0047567481459818315 0.021898087559209477 0.009784484417265364
-0.0067746548104343 0.020662430292232928 0.008160407870379903
-0.008302072576536723 0.01888205385331567 0.006161577482557717
-0.009198755130474261 0.016680080214313258 0.00406089522976534
-0.009449542071717632 0.014268401280284547 0.002119777594839918
-0.00915925040283353 0.01187049966475281 0.0005156495585969902
-0.008496171484915159 0.009658449281211201 -0.0006834510613584689
-0.007629390394530486 0.00773012897138024 -0.0014968036464179022
-0.006692931992838519 0.006118094912608812 -0.0019902337637351247
0.008264344711391864 0.0067083473293511366 -0.001538708128727229
0.00955005547764806 0.008588945721515358 -0.0006565397092333311
0.010752209693478626 0.010841574155163592 0.0007415724577432179
0.011667040188660561 0.013396051432022656 0.002760310018015518
0.012035497373332718 0.016080580190865237 0.005415942292588986
0.01160913068557305 0.018620697938606334 0.008557419564130331
0.010269375557865393 0.020702529654063235 0.011830122652024393
0.00812634419023504 0.022107663508067515 0.020837940551315052
0.0054984116131494044 0.022833183339555804 0.016925088939743326
0.002733376099736985 0.023091633142582852 0.018183608050579
-1.4597647562808586e-05 0.023139290741928 0.018580190481377358
-0.002752390667275352 0.023084109645472948 0.018160189133496634
-0.005496793675139194 0.02282546424598138 0.01689385040634214
-0.008108228053272477 0.022107051714208504 0.014732882814849201
-0.010247043207947629 0.020711252094314802 0.01182250644778954
-0.01159341176844769 0.01863486861005245 0.00856276927564103
-0.012029377080311193 0.01609471500034914 0.005427047106106813
-0.011668053046769279 0.013406851667051285 0.0027715828716625107
-0.010756634924356212 0.010848323043201566 0.0007504860114901573
-0.009555142484175261 0.008592436057937913 -0.0006503670508917511
-0.008268740838844766 0.00670977743037554 -0.0015347270921596636
0.010058048177044617 0.007135552814519749 -0.0008566287681240877
0.011745228530284814 0.009231535028122878 0.0005705130627298683
0.01329517861172776 0.011710535990899775 0.002780771257573675
0.014387304676372871 0.014413832332266244 0.005904727006440873
0.01463074173603646 0.01702494685960846 0.009888770910324925
0.013703042165184974 0.01911683703169006 0.014356838183141539
0.011582540513689989 0.020334769923146655 0.018605843629211815
0.00866304925783284 0.0206549581642823 0.02191457880415085
0.004391811219474569 0.021562882231514386 0.021496845279828262
0.0026399499678919167 0.020068227370573274 0.02489324368896582
-1.818770479542911e-05 0.019917421708766977 0.025144139788816473
-0.0026616007978808895 0.020065553166734175 0.02486058688914462
-0.005530483495805747 0.02041788526364797 0.02390458697070449
-0.008634703517385258 0.020664923975916894 0.021889653310887627
-0.011552689773975635 0.02035365020161088 0.018606841348293914
-0.0136866136618527 0.019137889363435783 0.014375061857912031
-0.014628680818529563 0.01704182183317258 0.00991100537821683
-0.014393683422656388 0.014424090798174704 0.005923215479672336
-0.013303991972914367 0.011714985412150545 0.0027933817454881254
-0.011753016301351858 0.009232331860564361 0.0005781506427064279
-0.01006373346872467 0.007134677020188066 -0.000852276724479417
0.012007004087337035 0.007293117099545099 5.877249671583536e-05
0.014107046572033821 0.009495176273704825 0.002188862223164278
0.015930810861248448 0.012014460982042162 0.005419657942768238
0.016966151265234826 0.014534076931950293 0.00983288852653427
0.016664679283256975 0.016527012490156003 0.015114782704471303
0.014761867620803823 0.01748252118777768 0.020410853239744675
0.011619878741113308 0.017301975506950132 0.024616313002428013
0.008100961535928984 0.016435751128436083 0.027157074472051644
0.004903932215086995 0.01550744082195802 0.028275194228030993
0.002260763509642951 0.014883209848180715 0.03719884024689884
-1.7987491567311635e-05 0.01467060862366789 0.028625554360340602
-0.0022793060745604065 0.014888549249550872 0.028557163071806994
-0.0048887921513805785 0.015520532013174331 0.028236477080930814
-0.008063508542933836 0.016457291660748545 0.027144173942979116
-0.011587005800789349 0.01732673804716952 0.024637249740775434
-0.014749717101411871 0.017503256962706267 0.020448544015732047
-0.016670464724575455 0.016539336849271374 0.015150542740520285
-0.016979858189345845 0.014537708333234697 0.009858124060238904
-0.015944228947492717 0.012012257574939499 0.005434251910498846
-0.01411672349010997 0.009490640842701476 0.0021962374689791257
-0.012012902282157317 0.007288595281192063 6.225039521282622e-05
0.014004235729017666 0.007082232918764215 0.00117085766579751
0.01646903715727578 0.009236015458149956 0.0041281495643811054
0.018380623725907413 0.011558066023858582 0.008496334220811037
0.018953020613631567 0.013533150365987007 0.01412929702370229
0.01757449202432317 0.014481313313718457 0.020134769307683997
0.01443435819663407 0.014115848385526968 0.0251054501105305
0.010537316218017134 0.012897785560252175 0.028104272963870244
0.00694259445043321 0.011557694819037003 0.029293065732853216
0.00407998114559484 0.010549610010454031 0.02947456564101867
0.0018564754735139381 0.009978875518544945 0.029326897804579883
-1.4015817805207018e-05 0.009800905218415234 -0.006304755552151913
-0.0018665590716247307 0.00998883204271767 0.029299021219629864
-0.0040565980155318395 0.010568081366138939 0.02945105128567831
-0.006902393627678525 0.0115788088345894 0.029302975429999302
-0.010509086395645234 0.012913296001595364 0.028147425938261365
-0.01443094277251147 0.01412177166255778 0.02515920437105447
-0.017589671661101664 0.014477555272531098 0.020178377483751526
-0.018973336309643287 0.013522345206393666 0.014154901308282316
-0.018396383248303987 0.011544789912014334 0.008507421972301117
-0.016477966406398342 0.009224205027894394 0.004131535290227935
-0.014008200534932744 0.00707356943363013 0.0011713515780904249
0.015911057375665928 0.00643452027998406 0.0023917453101152514
0.018636779464896464 0.008371011070085485 0.00622652057020547
0.02037651463634887 0.010287411191392606 0.011696961379050885
0.020057529591719508 0.01152914808821961 0.018183458602509642
0.017318017524259807 0.011496787357857816 0.024031473736742266
0.01318912419391773 0.010359041840258964 0.027754736476566854
0.009092651988191711 0.008879254099326177 0.029255755324919558
0.005811029171501635 0.007653963877950952 0.02937138513312219
0.0033882086700648645 0.0068599858076833576 0.028994457581322162
0.0015459566058636544 0.006446250217555018 0.02862520311846118
-8.926515942298596e-06 0.006325159575179611 0.028473250378275274
-0.0015472154195633144 0.006454807914608236 0.02860724574363786
-0.003361813796467614 0.006872021782467138 0.028989020905211205
-0.005777424310143303 0.0076596065121819785 0.029398456408632315
-0.00907579197820061 0.00887190849601979 0.029306249664996016
-0.013196037077722092 0.010339699333235993 0.02780585968949764
-0.017340030986730953 0.011470361358068046 0.024065183541586557
-0.020079829228619648 0.01150124508804314 0.018195424877952816
-0.020389600513884585 0.010263041635021123 0.011695117417147339
-0.01864077470823562 0.00835325068809192 0.006220631209315409
-0.015910367013446572 0.006423392424286567 0.002386806427238001
0.017579563512099744 0.005332393546163725 0.0035881687190570722
0.020440761706968305 0.006903989811635807 0.008252030138038382
0.02178269754848974 0.008309141357931973 0.014643802723253505
0.020355850643897028 0.008900739367644987 0.021499794823174292
0.016405851457410813 0.008336132171196317 0.026587893623636918
0.011755780638476565 0.007078749650762173 0.028925697754863818
0.007816907307750516 0.005819086462839186 0.029260044046857177
0.004948259286400497 0.004910695756054587 0.028737804967910396
-0.0010683514695394457 0.0003957884085204005 0.028105205416543207
0.0013362919866635702 0.004080339708717611 0.027663909497519228
-5.663758806142277e-06 0.003997196330950434 0.02750890393417498
-0.0013340371907342753 0.004081846854902683 0.027654420292287745
-0.002470870632777185 0.0039535863080812925 0.028109883354010736
-0.00492824837169362 0.004895812415902712 0.028764029482750086
-0.007813484847525233 0.005790284139585105 0.029294131966375057
-0.011770195502980205 0.007041791128082223 0.0289499369492146
-0.016428813590737504 0.008298543675047568 0.026591784845468324
-0.020374296472112224 0.008867357212003973 0.02148427893968645
-0.021788161561105173 0.008283163812845303 0.01462034946667037
-0.02043627964426709 0.006887389492054738 0.008232785807935312
-0.01757253720107288 0.005323578826646649 0.0035765879748121377
0.018875391069989374 0.0038174475512734044 0.004601858758902721
0.021771046088145594 0.004915720046874544 0.00994516047745365
0.022633877214357834 0.0058048150717559316 0.016999188622300418
0.021336709150509434 0.0048450340665070184 0.023873528142315144
0.015402194342282034 0.005355288235322692 0.028085779914939123
0.010578008280683613 0.004372562029613886 0.02933588124090782
0.006905242588740526 0.0035179138334825535 0.028939898060134535
0.004373443745809857 0.002944938313757731 0.02810102939778422
0.0025706879034892577 0.002600978222267989 0.027360404406807478
0.0011866283641250397 0.002410984484326335 0.02688023256217282
-7.588747340110959e-06 0.002343449682931447 0.02671480233586482
-0.0011894282043158938 0.0024001890918668874 0.02686966970582522
-0.002558229915687118 0.002582489795782143 0.027358953093399977
-0.0043652085040314335 0.0029190871919116106 0.028108195900405596
-0.006909144244020696 0.0034874734672500404 0.028942990143976124
-0.01059219009583505 0.004343678738133345 0.029325721660794536
-0.015420111518165925 0.00533280296183681 0.02805907246581305
-0.02020303591449957 0.005975353509493311 0.02383217903937811
-0.022631115804975854 0.00579594300063285 0.016956045160703467
-0.021758954312923295 0.004912665759998788 0.009915340906545665
-0.018863848763452144 0.0038176816520974193 0.004586185615218684
0.019693781201749062 0.001990082734560958 0.005281022576313093
0.022573255730520082 0.0025493270670880596 0.01106501519945021
0.02305380918027716 0.002964454399960153 0.018496003075038684
0.01992657097131523 0.0029794473632280953 0.025254823282167712
0.01467979317062127 0.0025899662806791973 0.028825117880322423
0.00984548344948486 0.0020752490993066115 0.029423112831388355
0.006379449029867783 0.0016583819750908247 0.02866338735091346
0.0040464548591547245 0.0013825052680981485 0.027686158635952647
0.002378572248776855 0.0012143102659339276 0.0268990061958898
0.0010853584824704722 0.0011158014044617519 0.026386415918836503
0.0009266329591819971 0.0019094286096381105 0.02619093300031457
-0.0010988417068269975 0.0011008217743500473 0.026354717918258087
-0.0023694163364527308 0.0011947287903608952 0.02687304213028895
-0.0040380437848492965 0.0013662712373827155 0.027670495439064656
-0.006379089058873943 0.001650131672479777 0.02864697546052865
-0.0098514229828499 0.0020775304653871487 0.029399588991256026
-0.01468851525284384 0.0026035838800547452 0.028792873766624802
-0.01993211806579555 0.003001929420693066 0.025214088165268586
-0.023048501490190637 0.0029889187414166886 0.018456647559325308
-0.022561805883067877 0.0025688726175595446 0.011039806718872204
-0.0196842643062009 0.0020029232853998958 0.005268880779728697
0.01997186843538737 -2.5536656098620143e-06 0.005518228823404714
0.02283679503333086 -4.525916831646325e-06 0.011451298123457557
0.023170418556283122 -6.890382062914558e-06 0.018993275111111547
0.019808267392576146 -8.230749871697128e-06 0.0256788400631685
0.014426656265971411 -6.830633997275181e-06 0.02902163208838821
0.0096058812679438 -2.9680700098024332e-06 0.02941778807253786
0.006210955265011364 1.5589851014782508e-06 0.028555733069129532
0.003939530587683244 4.542451305587225e-06 0.02753777314769321
0.0023125851973448434 3.420283484718828e-06 0.026733823315451984
0.0010509847409002808 2.014742129856374e-06 0.026206543545573602
0.0021779077715312497 -0.00963339424028247 0.026004728107578607
-0.0010691335739777105 8.845413305002897e-06 0.02616913059304536
-0.0023046130594024643 7.084271651491933e-06 0.026698534977710388
-0.003924071270098258 8.67092270300593e-06 0.027519841161788162
-0.006199086593040764 1.4527497401548315e-05 0.028549984008646646
-0.009599033289272231 2.2697118949878233e-05 0.029416986617409317
-0.014423860358770905 3.14956921555152e-05 0.02902257679622409
-0.019808583007285035 3.8813478269808566e-05 0.025679241089964566
-0.02317127290483818 3.8147022312418486e-05 0.01899208613235391
-0.022836782878728597 2.8090065906689242e-05 0.011450056762250325
-0.019971593538536912 1.7084991684326523e-05 0.005517820195547268
0.019691005563402492 -0.0019931561060277008 0.00527665149189299
0.022569464787039573 -0.002554569303760935 0.011056675764909464
0.023050489147233028 -0.0029717245067469116 0.018481779949113104
0.0199271017570941 -0.0029866102687951123 0.02523556955209582
0.014685800141571724 -0.002592806143737972 0.028806328389323572
0.009854246223256037 -0.0020703918411586627 0.029410307546206747
0.006386926389612654 -0.0016462801048684546 0.02865904278414753
0.0040482760639105235 -0.001367337560567429 0.027689145717325996
0.002373342600432787 -0.0012016180753166175 0.026899947747341075
0.0010874658410811088 -0.0011071954717094834 0.026382588745898092
0.00043303053740027553 0.001955412123925082 0.026202253127528767
-0.001101576302905792 -0.0010938610654529263 0.02636812243277859
-0.0023715647214122013 -0.001191108359252086 0.026880661330248908
-0.0040322296784978985 -0.001363896521454777 0.02768127902024231
-0.006366528771180987 -0.0016425054653355657 0.02866951945426486
-0.009835851553948144 -0.002059339561688899 0.02943608876468384
-0.0146724111054944 -0.0025721646048022157 0.02884347475195556
-0.019923027513218602 -0.0029587008902000208 0.025279185420917376
-0.02305818173524032 -0.0029432489310559917 0.018520204417448075
-0.022581513900829107 -0.0025322775370754933 0.011080362860662822
-0.019700460185497783 -0.001978658805795144 0.005288489870223658
0.018872058344755697 -0.0038159628256142185 0.004595598847453578
0.021767087448429454 -0.004912877082964307 0.009933838899720887
0.022631819613685277 -0.005799107641926332 0.01698110062055313
0.01828984249258203 -0.007885849880807864 0.023850971516612068
0.015415320165916858 -0.005337600651422428 0.028067738506525056
0.01059355347474225 -0.004348321879042964 0.02933118292532548
0.0069146760779604894 -0.0034923749608897427 0.02894953476721214
0.003965825800750254 -0.0025197468681057854 0.028118287826252485
0.0025595567548093337 -0.0025900555470023496 0.027371690476468116
0.001182562349936359 -0.0024068804287635374 0.02687998862435924
-3.2088285923953794e-06 -0.0023433398556881872 0.026718980070366175
-0.0011926358903776113 -0.0023987151300118967 0.026878119020301374
-0.002566558336448269 -0.0025851413166751384 0.02735889767082094
-0.00039778012901985467 0.0010336985810279924 0.028104834797776652
-0.00689486202901242 -0.0035092429266420097 0.028950214352790993
-0.010569082060959406 -0.004366609617619642 0.029351368121770777
-0.015394389382906635 -0.005351084968347927 0.02810629121581161
-0.020186772993708357 -0.005987949114922303 0.023900649791158857
-0.022638598081351907 -0.005802071753238702 0.017027271199361923
-0.021781363901467156 -0.0049117979710567835 0.009964647605220605
-0.01888476845468465 -0.0038132224189221186 0.004612269166385043
0.017578269966300176 -0.005326841223282585 0.0035830728885902613
0.020440482290908897 -0.006894515891447857 0.008243715580298794
0.021786396643532237 -0.008293628476738582 0.014632431888665304
0.020367798010224238 -0.008877632760084044 0.021489997793141508
0.016425445855235445 -0.008306550660919702 0.026590463419313076
0.011772446653658697 -0.0070481012922777924 0.028947557952835733
0.007819111728672088 -0.005795639753642512 0.029294272481641234
0.004934180237521451 -0.004900705882611106 0.028768102255106332
0.00287884976393144 -0.004362873436800981 0.028117026879275572
0.0013310062001122953 -0.004082013997860292 0.027660159544451484
2.0052556966799742e-06 -0.003992585968641608 0.02751068571825504
-0.0013366618697532452 -0.004072356757022473 0.02766550153452315
-0.0028943586545224654 -0.0043532244931043925 0.028108709454360177
-0.004942130410536296 -0.004904150430538657 0.028744211201866293
-0.007810065114317271 -0.005815949729866188 0.029269706118072367
-0.011749424148817467 -0.007078657904915501 0.028938056860556713
-0.016400484189634596 -0.008338659598924348 0.026603159380881994
-0.020353473768079274 -0.00890593290437689 0.021518368898838822
-0.02178625846974004 -0.008315038067414212 0.01466292028058915
-0.020448767923585714 -0.006907664052576943 0.00826667284202579
-0.01758781205142928 -0.005333488114050048 0.0035970875084276864
0.015913087198312546 -0.006427504189211485 0.0023896722892084417
0.01864164484794261 -0.00835993373460117 0.006224407528481066
0.02038690774385747 -0.01027107051589111 0.011697328212589852
0.020075440304266844 -0.011508069684566845 0.01819278709176644
0.01733877972555528 -0.011474952783921738 0.02405849977422669
0.01319948142939038 -0.010342865780344239 0.0277995776835877
0.009082012531805269 -0.008874463715684872 0.029303365494508633
0.005783896333874287 -0.007661900603920963 0.029399858246440983
0.0033661802526098075 -0.0068735724326389035 0.02899414766087283
0.001548315254437818 -0.0064541148231578626 0.028614068531028714
8.496006414338844e-06 -0.006321528229953843 0.028479474175752303
-0.005292501706791885 -0.010188290515068556 0.028630788051643465
-0.003386069666132446 -0.006855512509955099 0.029000394896202195
-0.00580768312239689 -0.007651415123296455 0.029378165625565347
-0.009088718770709178 -0.008879108435067286 0.02926338672511875
-0.013185091738536773 -0.010360949619350815 0.02776360655702271
-0.01731503146897786 -0.011500605447729696 0.024042114400588052
-0.020057112912621022 -0.011534911875324794 0.01819520557657349
-0.020379446379145044 -0.010293948782636219 0.011708289231987811
-0.018642290779084206 -0.008376285910186866 0.006235664887113087
-0.01591714978080753 -0.006437671651853612 0.0023979820004744155
0.01400905689273512 -0.007076533292894594 0.0011718623194233997
0.016477466760556274 -0.009228148828228212 0.004131578003374836
0.01839420093133454 -0.011548578978924876 0.008505598435636601
0.018971074532761895 -0.01352451003013299 0.014149975143895707
0.01759015756930838 -0.014477789547953398 0.020171401812512656
0.014434967736377499 -0.014121103641944521 0.02515321137424049
0.010515197958143317 -0.012912810713890884 0.0281444886600495
0.006908716488058997 -0.011578962486344732 0.02930372944761107
0.004061577371128907 -0.010568622307361645 0.029455087773956643
0.0018694200530319594 -0.009989033194994012 0.029305137956915115
1.5255114066260264e-05 -0.009800161136253021 0.029232693956011968
-0.0018556830777156543 -0.009977487652553886 0.029333469105279744
-0.0040788754748187816 -0.010548458011084519 0.029480744690464085
-0.006940946330877369 -0.011557431161342314 0.02929890635371892
-0.010535044550443143 -0.012898627241006735 0.028110175688476614
-0.014431896830321835 -0.014117964630224118 0.025112427249095844
-0.01757327742049739 -0.014484987928157233 0.020143007438939143
-0.018953926784861606 -0.013538191880718751 0.014137478275890857
-0.018383380891187764 -0.011563548432749064 0.008503436654032685
-0.016473026191438835 -0.009240791795685226 0.00413379274492082
-0.014008598384142198 -0.007085652946424783 0.00117494997947485
0.012013021112261359 -0.007290170686749123 6.169279760889932e-05
0.014116143519178982 -0.009492295500145357 0.002195015304127977
0.015943166338832856 -0.012013205577941177 0.005431766511745976
0.016979484127243157 -0.014537191103892094 0.00985415736435489
0.016672286776782935 -0.016537377623535333 0.01514610359371897
0.014753925555120615 -0.01750067167125233 0.02044542912355001
0.01159245073291691 -0.017324412063024756 0.024636485733963123
0.008068917570258745 -0.016455846040891252 0.027145804225855934
0.004893248822964368 -0.015520042647495772 0.028240214090836307
0.0022822984853158707 -0.014888646856066721 0.019945087850464456
1.968646720936133e-05 -0.014670784103986544 0.028631287491193574
-0.0022598094196904206 -0.014883272945736641 0.028597253677006003
-0.004903145277736904 -0.015507483722178217 0.028280581454439305
-0.008099963481194171 -0.01643606948876675 0.027162302436586922
-0.011618646762368656 -0.017303047190632352 0.024621860448447316
-0.014760902783657695 -0.0174849576742826 0.020417096339079514
-0.016664886729129108 -0.01653089220190752 0.015121280867992807
-0.016967728869608633 -0.014538738456013991 0.009838645001555558
-0.015933319689115943 -0.012019112268616572 0.005424280723915136
-0.014110074829210756 -0.00949922384548769 0.0021924357792867965
-0.01201018209975026 -0.007296240494950255 6.143805340889336e-05
0.010063735404300698 -0.007135276134449551 -0.0008531452008976087
0.01175281719221072 -0.009232709059714177 0.0005767943741792432
0.013303944784559681 -0.011714723979967687 0.002791382688177393
0.014394573353097465 -0.014422928531771118 0.005920767140192167
0.014631288926820814 -0.017039963100479748 0.009908957859153479
0.01369089248379019 -0.019135871191285517 0.014374617532079368
0.01155765515109433 -0.02035188969401356 0.01860862102566506
0.00863932804462887 -0.020663611827766045 0.02189330753852761
0.005534158309070585 -0.020417150804210367 0.026211624769216766
0.0026641560271051155 -0.02006534604691017 0.024866094187783502
1.9790592352945884e-05 -0.01991752787011054 0.025149932796041885
-0.0026390095923095875 -0.02006850592483575 0.02489900818794701
-0.005536904126575083 -0.020417690756921604 0.023951199525412144
-0.008662676003950253 -0.02065603824231407 0.02192035496218334
-0.011582472864959613 -0.020336841132874404 0.018611507312630903
-0.013703454030620644 -0.019120055165284835 0.014362121922782653
-0.014631814932012956 -0.017028988089880938 0.009893399887191954
-0.014389001732471759 -0.014418079948995414 0.0059084946038124924
-0.013297275857232914 -0.011714498321944272 0.0027837095876465157
-0.011747530838091179 -0.009234935816332583 0.0005727815447378137
-0.010060395176427858 -0.007138267661675268 -0.0008548927818938883
0.008268847664696037 -0.0067098480863270705 -0.001535575329780898
0.009555324165110997 -0.008592281463042174 -0.000651506047602191
0.010757202972085605 -0.010847789675460457 0.0007490761025541361
0.011669496786133868 -0.013405952768937765 0.0027701568980473316
0.012032105808077032 -0.01609374690442726 0.005426206289693585
0.011597350688495309 -0.01863428186257617 0.008563318614828954
0.01025152073152693 -0.020711315657822308 0.011824990290639312
0.008112400622862706 -0.022107713173248368 0.014737230322867653
0.005500055444978937 -0.02282655250214118 0.01689949145403483
0.002754634261328606 -0.02308546472617411 0.0181663976429985
1.5953198602721956e-05 -0.023140891439443798 0.01858658000474235
-0.002732727013836983 -0.0230935151387099 0.01818984727912025
-0.005498282988937033 -0.022835487409375018 0.016931050302920452
-0.008126715008760731 -0.022110496763959594 0.014761601642019208
-0.010270146458470587 -0.02070588913734903 0.011834760340109756
-0.011610192372278314 -0.018624428298830258 0.008561169881382467
-0.012036791888641873 -0.016084425365111354 0.0054188957111702745
-0.011668537424564127 -0.013399731585090044 0.002762615337133812
-0.010753853589330823 -0.010844883715767431 0.0007433757382472432
-0.009551782091684235 -0.008591776155196641 -0.000655116571676294
-0.008266085559825376 -0.006710660038439001 -0.0015375821388007112
0.006693166877074383 -0.0061179386182717 -0.0019909569029947015
0.007629809436307861 -0.0077298312040331996 -0.001497686938622147
0.00849699696344876 -0.009657995779943857 -0.0006844340887045676
0.009160765703939904 -0.011870006399047636 0.0005147599909543578
0.00945194915924709 -0.014268154646580494 0.0021193437165947402
0.009201987359877017 -0.016680450945137967 0.00406138202877178
0.00830572612962894 -0.018883301079123383 -0.018262215401319247
0.006778148181406694 -0.02066456329510643 0.008163562730391788
0.00475958342829943 -0.021900900629117218 0.009788736127645444
0.002448890821782473 -0.022594889990257695 0.010837031417685095
1.1099579737745223e-05 -0.022817141221907082 0.01120294935531835
-0.0024325426385225475 -0.022602733923616527 0.01085088576954951
-0.0047558617461295445 -0.021911112181302202 0.009808626553082591
-0.006785522024590232 -0.020671280173287503 0.008180776650631334
-0.008317696990672498 -0.01888391029832871 0.006172998609328455
-0.009212156827919612 -0.01667631592486948 0.004063572072131261
-0.009457544033739818 -0.014262391630279207 0.0021170751909552962
-0.009162246996003773 -0.011865018108592135 0.0005110077601704168
-0.008496047959665392 -0.00965475184201631 -0.0006879215604699158
-0.007627956530505282 -0.007728275743187832 -0.0015002732623416901
-0.006691331386013083 -0.0061175864310848115 -0.0019926311141071924
0.00536074132873452 -0.005450017133715241 -0.0022511825356367437
0.006017647669834137 -0.006782054898325042 -0.0020182627652301863
0.006608889000925633 -0.008358986786856171 -0.0015958607970345113
0.0070452798800814944 -0.01016135116666352 -0.0009466367528826183
0.007217475748169011 -0.012127243412993894 -5.856520784675292e-05
0.007016241252528665 -0.014144729946631898 -0.046494143285824116
0.006365743408815584 -0.016060639833892325 0.0022427955140738353
0.005254490037554859 -0.017710656362955886 0.0034260055971505987
0.0037439975697906008 -0.01895988519428565 0.004424411872386799
0.001949115238205962 -0.01972967860991552 0.0050930317399331855
7.204642697879424e-06 -0.01999055784801956 0.00533104993400566
-0.001937892789301998 -0.01973548048888205 0.005100601854363142
-0.003740086972373108 -0.0189681610562807 0.0044359017651045395
-0.005257654733544381 -0.01771742480262079 0.003436872415039509
-0.0063726875335491685 -0.01606363609474503 0.0022500726494502693
-0.007023225327284336 -0.014144076947123678 0.0010379305361371723
-0.007222292452541681 -0.01212452037377609 -5.849259854324829e-05
-0.00704754680071995 -0.010158218267185694 -0.0009480837361267395
-0.006609259428590155 -0.008356452741635814 -0.0015976820416663425
-0.006016997081242684 -0.006780448872680958 -0.0020198608547812606
-0.005359746810747558 -0.005449251595716325 -0.0022523651618035203
0.005401082964656389 0.005500826286837001 -0.0028703751568197153
0.006130129528557129 0.006917561610801136 -0.002758678414108827
0.006815942289056469 0.008625913612749371 -0.0024597651373072255
0.007363893784683215 0.010619064711519232 -0.001921629714029755
0.007649019938145409 0.012841857900000277 -0.0011136763321247824
0.007535871545333291 0.015175253102148288 -5.310807326469146e-05
0.006918740590077885 0.017439152434988434 0.0011753194860785851
0.0057646261129264366 0.01942489789888798 0.0024226826960234084
0.004131479231676408 0.02094819433985508 0.003503889011274109
0.002150750538696544 0.02189197149872961 0.004239181587981823
-8.299898080760273e-06 0.022207096462514456 0.0044969223812197845
-0.0021629913410801966 0.021884055953016644 0.004229752693566419
-0.004133919831235605 0.020937288741234766 0.0034898456901745014
-0.005757895999865118 0.019416714344163893 0.0024098272135519455
-0.006907504636898078 0.017436831724788736 0.0011673013256320104
-0.007525262183366528 0.015178465506266493 -5.5743470039379704e-05
-0.007641951496352951 0.012848169406699824 -0.0011124967290316414
-0.007360736454547187 0.010625954195646162 -0.0019186510142949944
-0.006815667211356349 0.00863183234035921 -0.002456452277112171
-0.00613144076610803 0.0069219730522768076 -0.0027557707072019162
-0.0054029883606335595 0.005503819721516077 -0.002868097613771209
0.006818527967732632 0.00624435524827118 -0.0027268261916399664
0.007878661966014425 0.007992835305994336 -0.002371713533348342