# vtk DataFile Version 3.0
Magnetic field distribution
ASCII
DATASET STRUCTURED_POINTS
DIMENSIONS 21 31 21
ORIGIN -115.00000000084702 -70.0 -155.00000000000003
SPACING 11.500000000034827 10.750000000020982 15.5
POINT_DATA 13671
VECTORS B_field float
-0.0012029840980751338 -0.0010494050024738334 -0.00030153350213417445
-0.001272781459470493 -0.0012095552883085617 -0.0004284128369821416
-0.001326343412528673 -0.0013913295137105853 -0.0005801332749170995
-0.001353497560336235 -0.001594560287427042 -0.0007573544231114908
-0.001341288806251282 -0.0018164236475883442 -0.0009578822090966891
-0.0012748952778930483 -0.0020497225733450645 -0.0011748131983760584
-0.001140510799637952 -0.0022812020228287415 -0.0013947283774504641
-0.0009306484103488592 -0.002491302304095787 -0.0015974149485524546
-0.0006500791249193468 -0.002657201745162609 -0.0017590561630886387
-0.0003178556497615326 -0.002759108658580852 -0.0018588577857876442
3.7523569050551295e-05 -0.0027860082354726604 -0.0018851526929997621
0.0003859455793734443 -0.0027369158237272543 -0.001836824116183113
0.0007005057345310816 -0.0026189414655896004 -0.0017213342631953437
0.0009598024736082779 -0.0024457171875190936 -0.0015530284325278793
0.0011510082578273506 -0.00223574932123239 -0.001351307189495549
0.0012721615714902596 -0.0020087973548550417 -0.0011367565510035258
0.0013306653213875877 -0.0017816645651179005 -0.0009267049173652512
0.0013389778603015916 -0.001565938033598971 -0.0007328462945006473
0.0013104776512334023 -0.001368087234219768 -0.0005613529354329038
0.001257027630560574 -0.0011907563056536958 -0.000414262087235156
0.001188094510880917 -0.0010341770393814365 -0.0002910097901540046
-0.0013457795328756647 -0.0010567361705029568 -0.00037931357780090607
-0.001436623203636105 -0.001223695119803202 -0.0005323161098540952
-0.0015123836600187891 -0.0014153614600265856 -0.0007181425321278029
-0.00156115008258308 -0.001632738504488494 -0.0009393382063787439
-0.001566644257370682 -0.0018742363627449272 -0.0011952452555281916
-0.0015085789593435814 -0.0021333566648989717 -0.001478998141737534
-0.0013658727757897228 -0.0023958424033630357 -0.0017737972262309876
-0.0011245224533739787 -0.002638198805126132 -0.0020508739803235384
-0.0007882955685150838 -0.002831120736663885 -0.002273711379666681
-0.00038346528702932396 -0.0029489755375596127 -0.002410113820386805
4.998790358627864e-05 -0.0029787941793582022 -0.002443805638060859
0.0004725004138603286 -0.0029207734949198956 -0.002375186763796224
0.0008503620248936229 -0.0027837624512503526 -0.0022155362820968556
0.0011559158654480747 -0.0025838761913655217 -0.001985114776674514
0.0013724901390894612 -0.0023439442450878998 -0.0017123670244630356
0.001499414036085754 -0.0020885119404757168 -0.0014275635827033163
0.001549343076582947 -0.0018374723942137232 -0.0011548006573110824
0.0015407394674337507 -0.0016033005098127274 -0.0009086175136618864
0.0014916842668858741 -0.001391948203131836 -0.000695238626813989
0.0014170269364702272 -0.0012050341389433542 -0.0005154210796807315
0.0013278684391110562 -0.0010417705973784618 -0.0003669482159086012
-0.0014918669094632912 -0.0010458351380932026 -0.0004599119444080754
-0.0016056427994415175 -0.0012147200216478381 -0.00064070738207298
-0.0017064040835519895 -0.0014100699775503331 -0.00086348705903492
-0.0017807771959787893 -0.0016339165730232196 -0.0011334983851394795
-0.0018091934583221476 -0.001886014494725712 -0.001452824479509779
-0.0017651596066730268 -0.002161129351631919 -0.0018160036492680266
-0.0016181590864476887 -0.002445047982268857 -0.002203364891206671
-0.0013444370495143657 -0.0027114038884990333 -0.0025753314642494762
-0.0009451640659261908 -0.0029248681477250663 -0.0028769525548359566
-0.00045662039131882476 -0.0030542556695988864 -0.0030591223193975007
6.533097701335764e-05 -0.0030857094853094587 -0.0031005267811856354
0.0005706515779577015 -0.0030214675509700932 -0.003005715898900019
0.001019453525318974 -0.0028712658171485225 -0.002790562432428158
0.0013761809901363582 -0.002652198250785965 -0.002481714555015228
0.0016184449494448282 -0.002390742182732226 -0.002119958556864658
0.0017476786700101612 -0.0021158967571798717 -0.0017492765544904261
0.0017841053061108513 -0.001849987688233914 -0.0014023782087653133
0.001753945229520086 -0.0016056459217961743 -0.0010963759052266613
0.0016806787929422968 -0.0013878677369802974 -0.0008364789046861951
0.0015821805628249593 -0.0011971458811252894 -0.0006211471621505748
0.0014709825991302827 -0.0010317827697464877 -0.000445787156489347
-0.0016368807783273046 -0.0010154243295062996 -0.000540514188109446
-0.0017740840985312908 -0.0011804518746436107 -0.0007494019011941335
-0.0019008910688696318 -0.0013716948554167968 -0.0010099500352841492
-0.002002807657471077 -0.0015916094911207067 -0.001330680651029152
-0.002057292514874508 -0.001840763371961637 -0.0017174372276011006
-0.002031509119865071 -0.0021150968737681463 -0.0021676303808227525
-0.001884113989732827 -0.002401376115996871 -0.002659874251129706
-0.0015787349128304046 -0.00267270442761186 -0.003142479627226707
-0.00111210343861754 -0.0028909650359617697 -0.0035366712516591865
-0.0005331910583876762 -0.0030223568024371887 -0.0037708968799211127
8.208181277333815e-05 -0.0030538642602660655 -0.003819504069813039
0.0006737135016704791 -0.002989719554566273 -0.003694874980045957
0.0011977386585361638 -0.00283880182563194 -0.0034170175188206774
0.001608846135115394 -0.0026168112333214786 -0.0030177676404625703
0.0018764900269379696 -0.0023516247442462923 -0.0025534062251723784
0.0020050146234761195 -0.0020746138305622794 -0.0020857639033745002
0.0020243740164753794 -0.0018089693962211884 -0.0016575517316335206
0.001969825284949054 -0.001566792998278485 -0.0012877232399875734
0.00187050038041894 -0.0013521810322065038 -0.0009792843761068503
0.0017470985901747419 -0.0011649226226645914 -0.0007274958572109182
0.0016133104717497516 -0.0010029148831544104 -0.0005248483518038138
-0.0017761095607886407 -0.0009658125492644987 -0.0006180893662144634
-0.001935492556792367 -0.0011210750664828117 -0.000853727263537754
-0.002086973538962684 -0.001299979420317699 -0.001150240244888988
-0.0022151454307745666 -0.0015044531788166616 -0.001519414027668646
-0.0022948824432383564 -0.0017347462987172713 -0.0019710491853410016
-0.002287495666239975 -0.001987052732407125 -0.0025060133188040505
-0.0021410110773926994 -0.0022494209170364765 -0.003102127423351866
-0.0018058341922218835 -0.0024974966013955233 -0.0036959446019401375
-0.0012735719302410405 -0.0026965805258484556 -0.004183389853531711
-0.0006069210165756964 -0.002816370490171008 -0.004468860109596688
9.706647474537014e-05 -0.0028464201812430177 -0.004524141854832651
0.0007706327521601066 -0.0027911123374571717 -0.004371685700066691
0.0013681935188442416 -0.002656670636969451 -0.0040335799872324865
0.0018335257456496136 -0.0024552558614623883 -0.003544261983743045
0.002126095934134253 -0.0022120634380912276 -0.002976576636695338
0.0022533096370728066 -0.0019565491370520977 -0.00241211253705602
0.0022555549561283795 -0.001710465630365776 -0.001903863521413088
0.002177239306838177 -0.0014851058018038117 -0.0014720036898018644
0.00205287405987801 -0.0012843946053104943 -0.001116785296497635
0.0019056929203577924 -0.0011083669581206722 -0.0008300162695574854
0.0017503661226918861 -0.0009553440133792276 -0.0006012200404923941
-0.0019051640909270925 -0.0008990261105985922 -0.0006898369600731159
-0.0020837603157543923 -0.0010394764212421866 -0.00094929686327624
-0.0022560462154833857 -0.001198968270931897 -0.0012773422888071714
-0.002405643247957379 -0.0013779770793294797 -0.0016882748630763942
-0.0025051008283287035 -0.001575263258801178 -0.002194867600416997
-0.0025108322110629104 -0.0017861788909193828 -0.0028004352522092045
-0.0023622893576259766 -0.0020000318526242466 -0.0034817336453139025
-0.001999552055213261 -0.0021977991218600093 -0.004165511521732309
-0.001410870666599212 -0.0023545147799819977 -0.004727494341884593
-0.0006708174259945844 -0.002449628965323735 -0.00505385092871963
0.00010680770245713494 -0.002476349937468848 -0.005115835727348172
0.0008495140597724425 -0.002436977504455263 -0.00494400634566472
0.001511238166453693 -0.002334373900232128 -0.004560045899333847
0.0020258413698748304 -0.002176034838709147 -0.0039985388199689905
0.002343084468627183 -0.001979992401688059 -0.0033456635720682994
0.0024721719559309364 -0.00176881018696933 -0.0026999956882730173
0.002462035872959523 -0.0015604108413990547 -0.0021236913102529635
0.0023648023005416615 -0.0013652408334703314 -0.0016383605745799554
0.0022196452578346825 -0.001187998222347784 -0.0012422446757254975
0.0020521202833180866 -0.0010300121986210856 -0.0009244618195606379
0.001877916872202644 -0.0008908701912932948 -0.0006721742296822175
-0.0020206710319462607 -0.000818529834515918 -0.000753644605394271
-0.0022142730833398924 -0.0009408649319030276 -0.0010328461854382917
-0.002401677080641041 -0.0010765164357370322 -0.0013860769037408625
-0.0025652672802252007 -0.0012240278551612646 -0.0018288575246469582
-0.002675436091392427 -0.001380101581235462 -0.002375081266698792
-0.0026850394621352885 -0.0015388390270698344 -0.0030283800603892108
-0.002528447976202641 -0.0016911362906811926 -0.0037634394008533387
-0.0021408368394791526 -0.0018250314054853614 -0.0045004490508234445
-0.0015103809071430696 -0.0019281567130514465 -0.005104613290764643
-0.00071929803585266 -0.0019918833084147367 -0.005454412976173784
0.00010991306116522222 -0.00201321988149026 -0.005522260489167201
0.0009028743011312832 -0.0019919163114364984 -0.005342363068442294
0.0016129987665685782 -0.0019278911683823223 -0.004934481955167601
0.002167486178942207 -0.0018238587771495425 -0.004331622114593303
0.0025088733300381145 -0.0016885191846815397 -0.00362639105497075
0.002645846254173002 -0.0015346642224381183 -0.002927388366183571
0.0026317826928352116 -0.001374683138085968 -0.0023034599692049657
0.002523765371821279 -0.001217877312778236 -0.0017784967051393073
0.002364541399666261 -0.0010701313482147563 -0.0013505304040670372
0.00218185248561778 -0.0009346265129880944 -0.0010075874433689328
0.001992635750518999 -0.0008126849193104593 -0.0007356063416075078
-0.0021207694668608627 -0.0007285640045394231 -0.0008084113183712803
-0.002324746656352186 -0.0008316918997767403 -0.0011028343731860387
-0.00252101461157181 -0.000942501642021207 -0.0014742364103919763
-0.002690426442260809 -0.0010577454381090598 -0.0019379307907020401
-0.002801437421386496 -0.0011722880972899366 -0.0025069276964286326
-0.0028049460963197677 -0.001279300465859174 -0.0031830065554155663
-0.0026342495498017683 -0.0013716262779326972 -0.003938130920990878
-0.0022254097612929356 -0.0014444443612977233 -0.004689980985247165
-0.0015693451549506593 -0.0014972313889872484 -0.005303294148845484
-0.0007507992651260768 -0.001531754052856763 -0.005658548805072675
0.0001071113672366454 -0.0015476991622566931 -0.005730212975935138
0.0009302165317708876 -0.0015423108711593325 -0.005552202797879719
0.001670991060817205 -0.00151344363141221 -0.005141922579547548
0.0022538922349450642 -0.0014603220275596204 -0.0045298190929400585
0.002617784002246464 -0.0013834110755414069 -0.003807795815773508
0.0027687757878744955 -0.0012860214622135084 -0.00308641564570211
0.0027600490508288113 -0.0011746766286702653 -0.002437844671866663
0.002650317546107937 -0.0010570867132365276 -0.0018888699082448756
0.0024845513785163925 -0.0009399962170671565 -0.0014392595052883565
0.0022924936051273827 -0.0008282415990201127 -0.0010777525454531633
0.002092586819580793 -0.0007247692043244984 -0.000790358600994208
-0.002205242218918934 -0.0006332781066888651 -0.0008541267435874022
-0.0024154434801272728 -0.0007182078836552125 -0.0011595892535434232
-0.002615130260256541 -0.0008064019245179829 -0.001542841775219127
-0.002783459186390772 -0.0008934938288529272 -0.002017852486377957
-0.0028872447343860656 -0.0009733333964937202 -0.002595200460269223
-0.002876874436530019 -0.0010388467853168005 -0.003273216106844011
-0.002687947261957033 -0.001084702674353608 -0.004020867873450926
-0.0022621020593264585 -0.0011115234193709918 -0.00475693645338473
-0.0015949418844585523 -0.0011275029273998735 -0.005354113693957565
-0.0007688220062880912 -0.0011416711395658085 -0.005702372956234742
9.947183909985343e-05 -0.0011545183131089877 -0.005777524897527017
0.0009368366924173597 -0.0011603872192366082 -0.005608749700745453
0.0016933506947443184 -0.0011560393608696484 -0.005211340053276794
0.002293935903827095 -0.001139506466455455 -0.004614031750867786
0.002677490031420336 -0.0011061831670743792 -0.0039031523848641354
0.0028464751058452074 -0.0010526401794187094 -0.0031846161145568114
0.00285021878541394 -0.0009807484609525453 -0.0025307284919750053
0.002746206421783606 -0.0008964500303917121 -0.0019712782459399662
0.0025803288116550277 -0.0008065705039862919 -0.0015091248804525532
0.002384027834253833 -0.0007167975271300967 -0.0011350975077829705
0.002177374644679456 -0.0006310815250184155 -0.000836314823356311
-0.0022752424279680575 -0.0005359190560612214 -0.0008916818037819383
-0.0024887106981512823 -0.0006051286472041549 -0.0012049559543160138
-0.0026882382985291484 -0.0006751082395836967 -0.0015954790467365221
-0.0028513390327200767 -0.0007413335193627163 -0.002075310214399362
-0.0029435397704154244 -0.0007977895152671503 -0.0026519030484829713
-0.002915666889213475 -0.0008381025352501747 -0.0033194973108360256
-0.002707484574247266 -0.000858528078602115 -0.004044111170248617
-0.0022686755463455976 -0.0008623562375564017 -0.0047477358079408985
-0.0016003811618446652 -0.0008610647706915441 -0.005316006028617845
-0.0007792068700935899 -0.0008658820555839257 -0.005652680211124123
8.88347928603487e-05 -0.0008769615126340501 -0.0057331261613062495
0.0009315284360384487 -0.0008872732820408322 -0.005577532804839571
0.0016946284984940153 -0.0008934563163999438 -0.0051995228873562924
0.0023052076826782625 -0.0008938219430844022 -0.0046282041798693455
0.0027048786318707584 -0.000882549235895966 -0.003942653857202876
0.002892485931493176 -0.0008537006396302114 -0.003240746340994117
0.002911821416547224 -0.0008066372786200933 -0.002592957364120978
0.0028175375845584075 -0.0007455741856145862 -0.002031700091766026
0.002655492079150338 -0.0006764906522124887 -0.0015632995714012312
0.0024584152827096606 -0.0006048646449600087 -0.0011812331973983993
0.002247909377772664 -0.0005347831086921908 -0.0008742344632551587
-0.0023327121951217593 -0.00043830118429600114 -0.0009224759843146781
-0.0025480227169420062 -0.0004948049648535032 -0.0012415854333378872
-0.0027461324295264848 -0.0005516337782705676 -0.0016369995719026315
-0.0029031936357805837 -0.0006050254937193715 -0.0021189610779721226
-0.0029838562155397527 -0.0006501572604588192 -0.00269211238866231
-0.002939810164871171 -0.0006821974602847531 -0.0033472498236185805
-0.002715076687797722 -0.0006987112366763061 -0.004048324380022571
-0.0022667316870136683 -0.0007027570524270398 -0.0047210242724462555
-0.0016003560604721738 -0.000703074266706262 -0.005263087483431797
-0.0007864881108076143 -0.0007075558797208437 -0.00559020959393527
7.894621942339951e-05 -0.0007159879004893335 -0.005676299985718163
0.0009242275607119815 -0.0007232720367337767 -0.005532745341719135
0.001690809586418907 -0.0007269810082772428 -0.005171793149552525
0.0023077464312973054 -0.0007260178794974101 -0.004623762574927382
0.002719767180939835 -0.0007164008926995203 -0.003962118995280683
0.002923168436236555 -0.000693615391444926 -0.0032775358642645135
0.002956824595815334 -0.0006566407316309914 -0.002638135373160505
0.002872383058798841 -0.0006082181915255266 -0.002077989816191668
0.0027151582290491786 -0.0005528222661165974 -0.0016061982189172236
0.0025187098499949733 -0.000494845789470879 -0.0012185721828236777
0.0023058766650311314 -0.0004377254412055821 -0.0009053858495001422
-0.002379676866437401 -0.00034067500208156384 -0.0009479436580922202
-0.002596854663839217 -0.00038708186431956075 -0.0012721032263295746
-0.002794397563840969 -0.000435021874046853 -0.0016720463083377075
-0.0029474952697490344 -0.00048209970310583055 -0.0021567870511054682
-0.00302025991114926 -0.0005252262275640209 -0.0027291784241731875
-0.002965112976149913 -0.0005612460740738499 -0.00337806242742434
-0.0027289463686489515 -0.0005881916900497349 -0.004066643887043933
-0.0022732013272315763 -0.0006065670958467402 -0.0047233337959229444
-0.0016055453499919852 -0.0006190168325400917 -0.0052525041699776455
-0.0007929402219959621 -0.0006277032621885878 -0.005575368572346754
7.376401221709267e-05 -0.0006323365142236003 -0.0056646468624919726
0.0009229383489343422 -0.0006315783954159432 -0.005527457398384521
0.001693895051036323 -0.0006249761799255395 -0.0051752372938346876
0.0023166414943169454 -0.0006123007424422719 -0.004638869554844356
0.0027376415365692147 -0.0005923300406259856 -0.003989379641182078
0.0029520077844968975 -0.0005636559767912938 -0.0033136808219476526
0.002995687185249414 -0.0005263788438781141 -0.0026781372228921645
0.002918203221584487 -0.0004824968058661899 -0.002117388603542773
0.0027643024766219383 -0.00043500210917707806 -0.0016420874395960763
0.0025680262544291415 -0.00038683808727291825 -0.0012495440881689795
0.0023530899264798066 -0.0003403137634005682 -0.000931098305866664
-0.00241760800819647 -0.00024197496753565183 -0.0009691278448458992
-0.002637720434434021 -0.00027977502781529234 -0.0012984021071248692
-0.00283698710236426 -0.0003212786935180701 -0.001703887106673425
-0.002989997887493528 -0.0003657043046581748 -0.0021941667745687256
-0.0030604014738331822 -0.0004117500822131483 -0.002771472093270871
-0.0030005823545956067 -0.0004575140286950388 -0.0034240175190425963
-0.002758017764262903 -0.0005003867708247255 -0.0041147850949639665
-0.002295037397058403 -0.0005369530679656286 -0.004772665809754473
-0.0016197533579241628 -0.0005633327102726913 -0.005302680644439997
-0.0007991769956135163 -0.0005766580182117554 -0.005625959358481274
7.532816834739308e-05 -0.0005769219806466914 -0.005714892932713224
0.000931504864189657 -0.0005665460579168862 -0.005576993192473576
0.001708882600407069 -0.0005477104581920933 -0.0052242148670202035
0.0023381044840814526 -0.0005212353166723201 -0.0046874025708883525
0.0027658136403256885 -0.0004877929245991732 -0.004037090663072059
0.0029864835677051805 -0.00044881827268079626 -0.003359440090196345
0.003034982767301917 -0.00040636722629603365 -0.0027203880314898427
0.0029600977677347864 -0.00036266431887818586 -0.002154817004800842
0.002806508506234069 -0.0003197147686217587 -0.001674015554105803
0.0026086744423921638 -0.0002790646024883267 -0.0012759328987277723
0.002390907402256504 -0.0002417226702693321 -0.0009523576231576458
-0.0024469862629813376 -0.00014032605968015483 -0.0009863889904317756
-0.0026715712047770492 -0.00016950561273072775 -0.0013212016850392557
-0.002875469223351726 -0.0002047603212956125 -0.001733799751479038
-0.0030329567237432813 -0.0002469478187265839 -0.002233154432004809
-0.0031070751549738024 -0.00029650679134849035 -0.0028219292688628516
-0.0030490191007237167 -0.00035262818632797053 -0.0034886066451082906
-0.002804244770073972 -0.0004117946796957169 -0.004195610368961327
-0.0023328263539564207 -0.00046642493873644427 -0.004869382805282745
-0.0016426699902134865 -0.0005060957208651328 -0.00541051343942079
-0.0008047121153874678 -0.0005231933374888264 -0.005736555999128693
8.418148728808288e-05 -0.000518502315205025 -0.005820943402014703
0.0009502781736286953 -0.0004987716905981824 -0.00567560902331938
0.0017356835023692929 -0.00046887245356713834 -0.0053148897651089395
0.0023723624769543352 -0.0004299074651942891 -0.004768816772558184
0.002805673788303517 -0.00038359051859145326 -0.0041074080909697655
0.0030289574449376857 -0.00033402355842240074 -0.0034179288302826944
0.0030772798323893706 -0.0002855931171164549 -0.002767684241848527
0.003000249448833875 -0.00024119780366149764 -0.0021922993722239
0.0028433443208227627 -0.00020212734144838822 -0.0017032636895811311
0.0026416266254710467 -0.00016861610305684616 -0.0012984647409762548
0.0024198299632758368 -0.0001403459700463651 -0.0009695268069116051
-0.002467109444398339 -3.366588689331108e-05 -0.0009992795554617075
-0.0026975670764213698 -5.2634516106436496e-05 -0.0013398856305254596
-0.002908824547408923 -7.951732061795051e-05 -0.0017609148535349555
-0.0030751300946985213 -0.00011668418095424796 -0.0022724986110047884
-0.0031588342665208927 -0.00016629205971864963 -0.002878769588273431
-0.003108965247494781 -0.00022892499606356662 -0.003569501855517085
-0.0028665405187006253 -0.0003009737027522103 -0.004306621189202889
-0.002386026621079775 -0.0003716507124641024 -0.005011508285971552
-0.0016738665759669286 -0.00042400549608735807 -0.0055744963689857594
-0.0008090112056344294 -0.0004447728454734038 -0.005904719625174714
0.00010010282776140507 -0.0004355773857581648 -0.005978750497671153
0.0009777847090076117 -0.00040831514948332255 -0.005819229165935623
0.0017725156816668936 -0.0003698941908381938 -0.005444555735714458
0.002418126502292748 -0.00032052041757809534 -0.004881356896886046
0.002856318568808334 -0.00026315382939848264 -0.004198852054236999
0.003078667652265272 -0.00020512694491388824 -0.00348784916525825
0.003121886629251409 -0.00015308336170202042 -0.0028189766779951457
0.003038018124072741 -0.00011026062202390322 -0.0022290226766973685
0.0028742040684885577 -7.702895148997193e-05 -0.0017292015272753133
0.0026663041754430832 -5.226383153115879e-05 -0.0013166460273321226
0.00243931187989819 -3.4349079252660443e-05 -0.0009822185505761005
-0.00247613753014311 7.962817614959169e-05 -0.0010065782950331584
-0.002713157982219895 7.383700679600437e-05 -0.0013525695117461841
-0.0029335758067532045 5.948906937555459e-05 -0.0017823379040073873
-0.0031119290926476828 3.3036656993793414e-05 -0.0023078096346999155
-0.0032099988742923446 -9.14961056839393e-06 -0.002935537613042113
-0.003174188084844685 -6.916257446588891e-05 -0.003657811293255696
-0.002939382666707156 -0.00014423763999836845 -0.004436936496463591
-0.002451260032876146 -0.00022245742265079006 -0.00518778393712243
-0.0017125297819058133 -0.0002828934381231201 -0.005784571496216233
-0.0008132734983888647 -0.0003078071933683476 -0.006121573732304194
0.00012039152688735283 -0.00029827614493607366 -0.006180213074858573
0.0010106141211832873 -0.0002686656364830355 -0.006001044709209152
0.0018162614049110888 -0.00022643457352963993 -0.005607363927126469
0.002472434147988405 -0.00017133164286832505 -0.005018843729907341
0.002914265497166469 -0.00010840156028656254 -0.004304842394697963
0.003131678939357062 -4.810394354548385e-05 -0.003563175991479058
0.003164956694808617 1.412253992712187e-06 -0.0028694519558432456
0.003070054117042604 3.7224019771974254e-05 -0.0022614573620593358
0.0028963760291585068 6.0174718648845616e-05 -0.0017493636136170195
0.0026806068674464297 7.276137443059204e-05 -0.0013288012399221174
0.0024477701641497083 7.776876536292194e-05 -0.0009893123287750376
-0.0024713516962510435 0.00020018746276832854 -0.0010064665248034701
-0.002714443626323619 0.00021146708414366506 -0.0013563724826257464
-0.002944248634893472 0.00021524378867607724 -0.0017935410732847436
-0.00313589152187032 0.00020732160469541034 -0.0023320275754754047
-0.0032508204918232303 0.0001831280651247124 -0.0029813195401586566
-0.0032328211248580634 0.00013936489143800474 -0.0037369068500349885
-0.003010148517686199 7.73819779592051e-05 -0.004562145051345838
-0.002518430324537304 7.488500721220402e-06 -0.005365386425201167
-0.0017551249145151243 -5.085744530069423e-05 -0.006003054101893918
-0.0008212340234632133 -7.982871683777853e-05 -0.00635187229808761
0.00013829592788030108 -7.739731187478005e-05 -0.0063971497964884026
0.0010429140954236278 -5.35869039401157e-05 -0.0061979838945765055
0.001861465238965755 -1.4344826209897756e-05 -0.0057820822836657
0.0025285231343792694 3.846655076730109e-05 -0.005161998275179287
0.002971588566166856 9.68414709573652e-05 -0.0044095112187224166
0.00318002994864578 0.0001486742180708227 -0.0036318912723134603
0.0031993788694313417 0.00018579745174848662 -0.0029104765897876835
0.0030904998935622975 0.0002063295895212948 -0.0022836239020108885
0.002905310525170749 0.00021250210368404818 -0.0017597262319118936
0.002681153183498936 0.00020805294805348044 -0.0013322854012252088
0.002442773920178874 0.0001966622400476044 -0.0009891014782687977
-0.002449592548305622 0.00032725005684668194 -0.000996820617074736
-0.0026967889272278764 0.000359774778408894 -0.0013478709617676375
-0.002934225132125344 0.000387781099090209 -0.0017890668271924165
-0.0031378721999606556 0.000407014102530717 -0.0023365444735374765
-0.0032691859645524444 0.00041247253488427987 -0.0030026631922389574
-0.003269815343090733 0.0003997821665382565 -0.003785990878887351
-0.0030622489050769245 0.0003680104958528038 -0.004650982384965852
-0.002573410970145814 0.00032308484426416266 -0.005500892781859377
-0.0017956238835142738 0.00027819777414682373 -0.0061785035950737074
-0.0008365279482104876 0.0002475086928690217 -0.006546538396927308
0.00014603849486303315 0.0002378786581788414 -0.006589831101835176
0.001067838223336978 0.0002488467448398712 -0.006376763005317172
0.001900986097930508 0.00027777204423335897 -0.005937535478959438
0.0025767532987796666 0.00031884634403929777 -0.005282892875779705
0.003016986502697559 0.0003606081795004275 -0.0044905832283836655
0.0032126419079805597 0.00039098042677643296 -0.003677663779107915
0.0032155195443619366 0.00040365653314846414 -0.0029306508298889773
0.0030916302222380324 0.00039887372912990993 -0.002287830432560996
0.00289517234161375 0.0003805387797661038 -0.001755242077274362
0.0026637346357363074 0.0003534332769374468 -0.0013238635019353967
0.0024213971745796798 0.0003217334189065669 -0.000979552775150367
-0.002407817741368085 0.0004584706442305258 -0.0009755805025079115
-0.002655609148009053 0.0005159475905426786 -0.0013236720580418828
-0.002896839243769529 0.000573770666453835 -0.0017634246744771685
-0.003108603656041134 0.0006282037701069342 -0.0023126696861768413
-0.0032529839266487114 0.0006742131604329255 -0.002986233394282417
-0.0032707101527234515 0.0007061205558715346 -0.0037855190364616876
-0.00308061868309451 0.0007193662760926147 -0.004676652612615244
-0.002603539537715613 0.0007131682555970536 -0.00556076766326833
-0.0018268031694535919 0.0006923536422567846 -0.006273427038580133
-0.0008582778392860172 0.0006664040017343916 -0.006668267511908831
0.00014002394702115258 0.0006464179731696077 -0.006723991913881567
0.0010795310844055298 0.0006412923270546478 -0.006506083258282709
0.0019269064514826667 0.000652549492856772 -0.006044274810479568
0.0026065526779488163 0.0006713524344491158 -0.005354433032794116
0.0030379811092249845 0.0006834166281687007 -0.004525104723961627
0.0032170014350249563 0.0006782123593581838 -0.003682856690153515
0.0032024552817503465 0.0006533688718678516 -0.002917494811970959
0.0030648360118703012 0.0006126129262374261 -0.002265758072375442
0.0028596496749118345 0.0005618469148617092 -0.0017305878821037184
0.0026239592012097745 0.0005065640488944306 -0.001300224570510135
0.002380705712184773 0.0004508893978191444 -0.0009586506499424401
-0.002343702775912348 0.0005899763913986473 -0.0009411447635808443
-0.0025872108524189292 0.0006748869384923097 -0.0012810261340844846
-0.0028264900539982925 0.0007665641513703922 -0.0017120055731921634
-0.00304003649027023 0.0008624092159302635 -0.002252904158160297
-0.00319145655615861 0.0009579527137245991 -0.002920362026324883
-0.0032225384712732934 0.0010464480641451993 -0.0037185686623118696
-0.003051617915014691 0.00111912593970156 -0.00461696469705135
-0.0025963750489383756 0.0011670346205713625 -0.005518941030412506
-0.0018385188980664532 0.0011849592470816984 -0.006258926413396119
-0.0008797243310984362 0.0011759223106703643 -0.006684569025808159
0.0001216136733893262 0.0011524963344195656 -0.006763768491405927
0.0010731162280476446 0.0011302662896095226 -0.006549844989487153
0.0019294402811133044 0.0011147873655598338 -0.006068752799838625
0.002604870066326041 0.0010964649855326608 -0.00534684959316492
0.003020039236779837 0.001061388057039858 -0.004488544226823321
0.003179344138880526 0.0010038372285629791 -0.0036292496469553493
0.0031488566327040677 0.0009276524902348252 -0.0028586887582888617
0.0030017136251906675 0.0008407653180187362 -0.0022096104751200005
0.0027929454510782522 0.0007506838826459443 -0.0016810340779555202
0.0025580350305264557 0.0006628284652622505 -0.001258579087964327
0.002318330537784298 0.0005805167066417026 -0.0009247869785379959
-0.002256206283037434 0.0007166830578920263 -0.0008927414062480823
-0.002489610756071312 0.0008295969595105146 -0.0012184206002619686
-0.0027197506822222817 0.0009566009421649272 -0.0016319871656550237
-0.0029266342697206495 0.0010968344533135062 -0.0021521601827020724
-0.003076203708731363 0.0012473045174494818 -0.0027961727748281573
-0.0031134665224102297 0.001401424957653398 -0.0035702758949077906
-0.0029601165473351373 0.0015473966072239672 -0.004448415180000612
-0.0025348722811929527 0.0016681080136252563 -0.005340967625921877
-0.0018144978440324513 0.0017457516873616637 -0.006088808413108656
-0.0008888614530174338 0.0017721016342766415 -0.006539015711824106
9.509912266451837e-05 0.0017563341196450335 -0.006646522325910213
0.0010431169407582085 0.0017169592118211033 -0.0064452874333484865
0.0018942694199634235 0.0016621666927524013 -0.005955094946162999
0.002552750051690911 0.0015852940106493801 -0.005216591612158514
0.0029446845838329437 0.0014803095708483388 -0.004351053686437024
0.0030848701290011092 0.001352062982505287 -0.0034983868679037762
0.0030443084333595253 0.0012121384424319676 -0.002743589400325475
0.002895537881164967 0.0010716379443007525 -0.002113509817457341
0.0026909853097655035 0.0009380897419552963 -0.0016034300578605446
0.0024636421149823663 0.0008155634012894192 -0.001197288266208603
0.0022330598185961057 0.000705720525926857 -0.0008771468712989007
-0.0021460058730472546 0.0008328734897305988 -0.0008307139597101308