# vtk DataFile Version 2.0
Generated by ksugahar
ASCII
DATASET STRUCTURED_POINTS
DIMENSIONS 31 31 31
ORIGIN -30.0 -30.0 -30.0
SPACING 2.0 2.0 2.0
POINT_DATA 29791
SCALARS B_magnitude float
LOOKUP_TABLE default
0.0013155699403242633
0.0014234950544681029
0.0015380061836728451
0.0016585322680322063
0.0017841581644821858
0.0019135608630487034
0.0020449546845688416
0.0021760567293775722
0.0023040865866358704
0.0024258153771360823
0.0025376770617241327
0.002635948254620227
0.002716991194115368
0.0027775395581497685
0.002814992125671421
0.002827669850311652
0.0028149921256759363
0.0027775395581585475
0.002716991194127899
0.0026359482546358527
0.0025376770617420723
0.0024258153771555555
0.00230408658665604
0.002176056729397772
0.0020449546845885645
0.0019135608630676195
0.0017841581644999422
0.001658532268048579
0.0015380061836877833
0.0014234950544816864
0.0013155699403364677
0.0014234950544664278
0.0015471107393150712
0.0016793199118104486
0.0018196446084231546
0.001967191676820975
0.002120555818008859
0.0022777270049091723
0.0024360175210826848
0.002592029592606924
0.0027416886474486515
0.002880366801743842
0.0030031131405412782
0.0031049899393064445
0.003181488710452757
0.0032289729412415466
0.003245075092663825
0.0032289729412476775
0.003181488710464672
0.0031049899393233555
0.0030031131405622706
0.0028803668017676996
0.0027416886474742803
0.00259202959263328
0.002436017521108827
0.0022777270049344034
0.0021205558180327233
0.0019671916768430673
0.0018196446084433936
0.0016793199118287827
0.0015471107393314337
0.0014234950544809723
0.0015380061836689103
0.001679319911808178
0.0018317402830978083
0.001994975192379058
0.002168244760533815
0.002350139023301271
0.0025384695335234015
0.0027301341490145285
0.0029210250752963788
0.00310602038276526
0.0032791038298547286
0.003433650309789912
0.0035628891021690853
0.0036605145871876793
0.0037213639664154777
0.0037420421075468574
0.0037213639664238954
0.003660514587204017
0.003562889102192179
0.003433650309818289
0.0032791038298867594
0.0031060203827992677
0.0029210250753309366
0.002730134149048463
0.002538469533555726
0.0023501390233314095
0.0021682447605614564
0.0019949751924040237
0.0018317402831200843
0.001679319911827877
0.0015380061836863161
0.0016585322680254728
0.0018196446084177492
0.00199497519237588
0.0021845510682556688
0.0023878475549377444
0.0026035866451804075
0.002829509281198561
0.0030621432130302634
0.0032966068855855655
0.0035265113524343317
0.003744038907735123
0.003940275892453757
0.004105843723759595
0.004231801296610419
0.004310698188659209
0.00433757727208158
0.004310698188670904
0.004231801296632956
0.004105843723791224
0.003940275892492319
0.0037440389077781854
0.003526511352479574
0.0032966068856310187
0.0030621432130742737
0.00282950928124001
0.0026035866452184665
0.0023878475549721587
0.0021845510682863274
0.001994975192402901
0.0018196446084413783
0.0016585322680460013
0.0017841581644719663
0.001967191676811627
0.002168244760526282
0.002387847554933155
0.0026259403054079353
0.0028815988799659876
0.0031526996642178002
0.0034355429149810087
0.0037244835168792107
0.004011659312445753
0.0042869496475418725
0.00453831654466792
0.004752644360098868
0.004917078063739223
0.005020683671107406
0.005056087548056651
0.005020683671123733
0.004917078063770455
0.0047526443601424734
0.00453831654472054
0.004286949647599997
0.004011659312506073
0.0037244835169389554
0.0034355429150380455
0.0031526996642707193
0.0028815988800139393
0.0026259403054506862
0.0023878475549707332
0.002168244760558956
0.001967191676839789
0.0017841581644961594
0.0019135608630339981
0.0021205558179944596
0.0023501390232879707
0.002603586645169555
0.0028815988799593666
0.003183943655861781
0.0035089854434508846
0.0038531042733112946
0.004210052793280747
0.004570371030569427
0.004921071147306452
0.005245878950462523
0.005526301669526984
0.005743610762546197
0.005881493586414288
0.005928780199255668
0.0058814935864371426
0.005743610762589778
0.005526301669587295
0.00524587895053457
0.004921071147385016
0.0045703710306498535
0.00421005279335917
0.0038531042733849956
0.00350898544351825
0.003183943655921918
0.0028815988800121113
0.002603586645215295
0.0023501390233273034
0.00212055581802789
0.0019135608630623906
0.002044954684548775
0.0022777270048884813
0.002538469533502895
0.002829509281179431
0.003152699664201898
0.0035089854434410517
0.003897774931497694
0.004316089563733433
0.004757512628460318
0.005211071337749493
0.005660367331753188
0.0060834699081025005
0.006454156321705625
0.006744826339145651
0.006930781115286293
0.006994823140844734
0.006930781115318487
0.006744826339206661
0.006454156321789308
0.006083469908201322
0.005660367331859459
0.005211071337856504
0.0047575126285629024
0.004316089563828253
0.003897774931582869
0.00350898544351586
0.003152699664266597
0.0028295092812346805
0.0025384695335496487
0.002277727004927847
0.002044954684581798
0.002176056729351265
0.0024360175210544487
0.0027301341489849346
0.0030621432130003624
0.0034355429149526234
0.0038531042732873103
0.004316089563718285
0.004823080041028438
0.005368358696751946
0.005939944866206773
0.006517694293098479
0.007072332090018301
0.007566617426543408
0.007959549757916453
0.008213319805246243
0.00830113882137879
0.008213319805291684
0.007959549758001935
0.007566617426659519
0.007072332090153626
0.00651769429324161
0.005939944866348343
0.00536835869688531
0.0048230800411493855
0.004316089563825042
0.003853104273379653
0.003435542915031198
0.0030621432130664926
0.002730134149040132
0.0024360175211003113
0.0021760567293892773
0.002304086586602373
0.002592029592569816
0.0029210250752558105
0.0032966068855422976
0.0037244835168347154
0.004210052793237723
0.004757512628423299
0.005368358696728132
0.006039056404660918
0.006757829508686868
0.0075009931186945135
0.008230172226478141
0.008892727548757928
0.00942762368499697
0.009776734924071346
0.009898185139345986
0.009776734924135269
0.009427623685116515
0.008892727548918506
0.008230172226662448
0.007500993118886021
0.006757829508872707
0.006039056404832421
0.005368358696880755
0.004757512628555545
0.004210052793350067
0.003724483516928834
0.0032966068856204182
0.0029210250753201705
0.002592029592622662
0.002304086586645654
0.0024258153770945613
0.002741688647401438
0.003106020382711953
0.003526511352375066
0.004011659312381276
0.004570371030501681
0.005211071337682716
0.005939944866148163
0.006757829508648489
0.007655345784973473
0.008606463055984358
0.009562324933055352
0.010449521904549796
0.011177829257651888
0.011658462931336955
0.011826568811589791
0.011658462931426184
0.011177829257817594
0.010449521904769712
0.009562324933303648
0.00860646305623747
0.007655345785213911
0.006757829508865758
0.005939944866337578
0.005211071337843809
0.004570371030636305
0.004011659312492319
0.003526511352465915
0.0031060203827859346
0.0027416886474614464
0.00242581537714322
0.0025376770616739744
0.0028803668016855453
0.0032791038297872487
0.0037440389076575844
0.004286949647453817
0.00492107114720851
0.005660367331648104
0.006517694292992449
0.007500993118599626
0.008606463055921233
0.009808241108763946
0.011046619914442477
0.01222171051613578
0.013202806636546953
0.013857246016969329
0.0140872795496868
0.013857246017091509
0.01320280663677246
0.012221710516431585
0.011046619914770848
0.00980824110909187
0.008606463056226036
0.007500993118869166
0.006517694293222902
0.005660367331840528
0.00492107114736667
0.004286949647582392
0.0037440389077614085
0.003279103829870801
0.002880366801752654
0.002537677061727907
0.0026359482545611577
0.0030031131404713992
0.003433650309707262
0.003940275892356211
0.004538316544553387
0.005245878950329676
0.00608346990795146
0.007072332089852551
0.008230172226307397
0.009562324932900138
0.011046619914338673
0.012613575553947643
0.01413219712487693
0.015420095286839963
0.016287221737844013
0.0165932292867
0.01628722173800609
0.015420095287137314
0.014132197125262834
0.01261357555436918
0.011046619914751452
0.00956232493327577
0.008230172226632923
0.00707233209012555
0.006083469908175618
0.005245878950511222
0.0045383165446991145
0.003940275892472534
0.003433650309799881
0.0030031131405451835
0.0026359482546199384
0.00271699119404748
0.003104989939224977
0.003562889102071073
0.004105843723641452
0.004752644359956631
0.005526301669356577
0.006454156321503488
0.007566617426308612
0.008892727548495249
0.010449521904275774
0.01222171051588638
0.014132197124712935
0.016017287815993216
0.017636478746750957
0.018734339319473693
0.01912281682512064
0.018734339319678526
0.017636478747125227
0.016017287816474803
0.014132197125231904
0.012221710516385908
0.010449521904722075
0.008892727548875202
0.007566617426622173
0.006454156321757311
0.005526301669559476
0.00475264436011775
0.004105843723768852
0.0035628891021716566
0.003104989939304462
0.0027169911941104636
0.002777539558073691
0.003181488710360382
0.0036605145870750597
0.0042318012964725465
0.004917078063570002
0.005743610762338545
0.0067448263388919195
0.007959549757609962
0.00942762368463548
0.011177829257244436
0.013202806636124517
0.015420095286466068
0.017636478746518348
0.019557038214911334
0.02086506969656988
0.021328617020391957
0.020865069696813385
0.019557038215355156
0.017636478747086116
0.015420095287071963
0.013202806636700402
0.01117782925775186
0.009427623685061608
0.00795954975795732
0.006744826339170013
0.005743610762558778
0.004917078063743398
0.004231801296608706
0.0036605145871818714
0.0031814887104443276
0.0027775395581398155
0.0028149921255881745
0.0032289729411396776
0.0037213639662900143
0.004310698188503967
0.005020683670914364
0.00588149358617345
0.006930781114986102
0.008213319804874362
0.009776734923617848
0.011658462930802116
0.013857246016376128
0.01628722173725335
0.018734339318985854
0.020865069696293793
0.022319568621034215
0.02283537961423058
0.022319568621304547
0.020865069696785952
0.01873433931961348
0.01628722173791945
0.013857246017004502
0.011658462931351195
0.009776734924075178
0.008213319805244259
0.006930781115280193
0.005881493586405027
0.005020683671095745
0.004310698188645761
0.0037213639664009095
0.0032289729412264584
0.002814992125656377
0.0028276698502226823
0.0032450750925544663
0.003742042107411484
0.004337577271912797
0.005056087547845137
0.005928780198989367
0.006994823140508937
0.008301138820956839
0.009898185138822093
0.01182656881095658
0.01408727954895944
0.016593229285933705
0.019122816824416397
0.02132861701986738
0.022835379613964955
0.02336982748758186
0.02283537961424487
0.021328617020376774
0.01912281682506536
0.016593229286621283
0.01408727954960652
0.011826568811520435
0.009898185139290347
0.00830113882133464
0.006994823140808653
0.0059287801992248465
0.005056087548029277
0.004337577272056526
0.00374204210752372
0.0032450750926422286
0.002827669850291575
0.0028149921255830835
0.003228972941133281
0.0037213639662819404
0.004310698188493552
0.005020683670900778
0.005881493586155525
0.006930781114962036
0.008213319804841617
0.009776734923572877
0.011658462930740004
0.013857246016291309
0.01628722173714057
0.018734339318842646
0.020865069696122826
0.022319568620843902
0.022835379614033348
0.022319568621114234
0.020865069696614974
0.01873433931947024
0.016287221737806657
0.013857246016919657
0.011658462931289115
0.00977673492403014
0.008213319805211554
0.006930781115256159
0.005881493586387075
0.005020683671082175
0.0043106981886353755
0.0037213639663928317
0.003228972941220116
0.0028149921256512655
0.0027775395580637526
0.0031814887103479433
0.003660514587059295
0.004231801296452356
0.004917078063543838
0.00574361076230412
0.006744826338846041
0.00795954975754797
0.009427623684550978
0.011177829257128851
0.013202806635967922
0.015420095286259164
0.017636478746256828
0.01955703821459996
0.020865069696223742
0.021328617020033382
0.020865069696467235
0.019557038215043794
0.01763647874682459
0.015420095286865068
0.013202806636543758
0.011177829257636286
0.00942762368497712
0.007959549757895394
0.006744826339124162
0.005743610762524406
0.00491707806371725
0.004231801296588523
0.0036605145871661596
0.003181488710431917
0.0027775395581298916
0.0027169911940331452
0.0031049899392070757
0.0035628891020484652
0.004105843723612693
0.004752644359919642
0.005526301669308288
0.006454156321439839
0.007566617426223604
0.008892727548380927
0.01044952190412163
0.01222171051568051
0.014132197124444475
0.01601728781565728
0.017636478746353674
0.018734339319033594
0.019122816824665215
0.018734339319238437
0.01763647874672793
0.01601728781613887
0.014132197124963471
0.012221710516180068
0.010449521904567924
0.008892727548760838
0.007566617426537238
0.006454156321693647
0.005526301669511219
0.004752644360080765
0.0041058437237401265
0.0035628891021490814
0.003104989939286537
0.002716991194096138
0.002635948254542932
0.003003113140448816
0.0034336503096789673
0.003940275892320439
0.0045383165445078
0.005245878950270952
0.006083469907874963
0.007072332089752076
0.00823017222617467
0.009562324932724778
0.011046619914109202
0.012613575553654154
0.014132197124515617
0.015420095286417518
0.016287221737379044
0.01659322928621983
0.016287221737541144
0.01542009528671488
0.014132197124901515
0.012613575554075723
0.01104661991452198
0.00956232493310041
0.00823017222650021
0.007072332090025118
0.0060834699080992045
0.005245878950452504
0.004538316544653505
0.003940275892436772
0.0034336503097716136
0.003003113140522585
0.0026359482546017355
0.0025376770616525983
0.002880366801659158
0.003279103829754482
0.0037440389076165556
0.004286949647402112
0.004921071147142833
0.005660367331563949
0.006517694292883925
0.007500993118459255
0.008606463055740173
0.009808241108532817
0.011046619914153977
0.012221710515787888
0.013202806636146298
0.013857246016532215
0.014087279549236732
0.013857246016654456
0.013202806636371791
0.012221710516083647
0.011046619914482336
0.009808241108860766
0.008606463056044967
0.007500993118728829
0.006517694293114337
0.005660367331756371
0.004921071147300976
0.004286949647530714
0.0037440389077204434
0.0032791038298379963
0.0028803668017262562
0.00253767706170646
0.002425815377070737
0.00274168864737226
0.003106020382676087
0.0035265113523305965
0.004011659312325895
0.0045703710304323695
0.00521107133759536
0.005939944866037759
0.006757829508509032
0.00765534578479808
0.008606463055766348
0.009562324932790082
0.01044952190423698
0.011177829257297728
0.01165846293095443
0.011826568811197237
0.011658462931043702
0.01117782925746346
0.010449521904456943
0.009562324933038414
0.008606463056019453
0.007655345785038473
0.006757829508726266
0.005939944866227267
0.005211071337756451
0.004570371030566953
0.004011659312436928
0.00352651135242141
0.0031060203827499772
0.002741688647432306
0.0024258153771193613
0.0023040865865767888
0.002592029592538821
0.0029210250752179897
0.0032966068854960082
0.003724483516777765
0.004210052793167441
0.004757512628336365
0.0053683586966205505
0.006039056404528064
0.0067578295085238705
0.007500993118497087
0.008230172226243858
0.008892727548487555
0.009427623684695872
0.009776734923749461
0.00989818513901679
0.009776734923813384
0.00942762368481541
0.008892727548648146
0.008230172226428101
0.0075009931186886146
0.006757829508709644
0.006039056404699643
0.005368358696773119
0.0047575126284686315
0.0042100527932797975
0.0037244835168719096
0.0032966068855741285
0.0029210250752823453
0.0025920295925915943
0.002304086586620099
0.002176056729324675
0.0024360175210224114
0.0027301341489462945
0.0030621432129535643
0.0034355429148958424
0.003853104273218331
0.004316089563634393
0.004823080040926546
0.005368358696628865
0.005939944866059201
0.006517694292923954
0.007072332089815825
0.007566617426314294
0.007959549757665085
0.008213319804980121
0.008301138821107444
0.008213319805025572
0.007959549757750591
0.007566617426430426
0.007072332089951037
0.006517694293067054
0.0059399448662008246
0.0053683586967621915
0.00482308004104751
0.004316089563741142
0.0038531042733106766
0.0034355429149744102
0.003062143213019649
0.002730134149001465
0.002436017521068342
0.0021760567293626484
0.0020449546845217517
0.002277727004856211
0.002538469533464291
0.002829509281133274
0.0031526996641466146
0.0035089854433747536
0.003897774931418481
0.00431608956363898
0.004757512628348402
0.005211071337618096
0.0056603673316009346
0.006083469907929279
0.006454156321512925
0.006744826338937026
0.006930781115067163
0.006994823140621948
0.006930781115099379
0.006744826338998023
0.006454156321596625
0.006083469908028091
0.0056603673317071074
0.005211071337725095
0.004757512628450946
0.0043160895637337875
0.0038977749315036794
0.003508985443449641
0.003152699664211304
0.0028295092811885213
0.0025384695335111084
0.002277727004895592
0.002044954684554719
0.0019135608630070917
0.002120555817962537
0.002350139023250256
0.0026035866451249038
0.002881598879906421
0.0031839436557992984
0.0035089854433772785
0.003853104273224986
0.004210052793180195
0.0045703710304534646
0.00492107114717448
0.005245878950314862
0.005526301669365065
0.005743610762372804
0.0058814935862333845
0.00592878019907222
0.005881493586256293
0.005743610762416382
0.005526301669425364
0.005245878950386959
0.004921071147253047
0.004570371030533931
0.004210052793258595
0.003853104273298676
0.0035089854434446027
0.003183943655859401
0.0028815988799592023
0.002603586645170649
0.002350139023289511
0.0021205558179959567
0.0019135608630354046
0.0017841581644454855
0.0019671916767805596
0.0021682447604898965
0.0023878475548905426
0.0026259403053580446
0.002881598879907804
0.003152699664150177
0.0034355429149028993
0.0037244835167895484
0.004011659312343924
0.0042869496474277555
0.0045383165445419945
0.004752644359962447
0.0049170780635944215
0.005020683670957276
0.005056087547904647
0.005020683670973621
0.004917078063625692
0.004752644360005997
0.004538316544594635
0.004286949647485882
0.004011659312404272
0.003724483516849267
0.0034355429149598663
0.0031526996642030785
0.002881598879955779
0.0026259403054007596
0.002387847554928052
0.002168244760522606
0.0019671916768088035
0.0017841581644696576
0.0016585322679998282
0.001819644608387986
0.001994975192341225
0.0021845510682154752
0.0023878475548912204
0.0026035866451267226
0.0028295092811370013
0.0030621432129599876
0.003296606885506022
0.003526511352345211
0.0037440389076365023
0.003940275892346148
0.004105843723644111
0.0042318012964888164
0.00431069818853367
0.004337577271954676
0.004310698188545428
0.004231801296511368
0.004105843723675725
0.003940275892384684
0.003744038907679518
0.0035265113523904033
0.003296606885551407
0.0030621432130039307
0.002829509281178357
0.0026035866451648267
0.002387847554925632
0.002184551068246153
0.00199497519236822
0.001819644608411625
0.0016585322680203413
0.001538006183644385
0.0016793199117797937
0.001831740283065183
0.001994975192341535
0.002168244760490817
0.002350139023252134
0.0025384695334676206
0.0027301341489516765
0.002921025075225975
0.00310602038268728
0.0032791038297693173
0.0034336503096976416
0.00356288910207091
0.0036605145870849017
0.003721363966309764
0.0037420421074402127
0.0037213639663182013
0.0036605145871012193
0.003562889102094032
0.0034336503097259917
0.003279103829801358
0.0031060203827212875
0.0029210250752605103
0.002730134148985548
0.0025384695335000096
0.0023501390232822553
0.0021682447605184357
0.0019949751923664383
0.0018317402830874236
0.001679319911799514
0.0015380061836616705
0.0014234950544430728
0.0015471107392883228
0.0016793199117799518
0.0018196446083883749
0.0019671916767814283
0.002120555817964159
0.002277727004858916
0.0024360175210265864
0.0025920295925448106
0.0027416886473804226
0.002880366801669811
0.0030031131404619463
0.003104989939222521
0.003181488710365393
0.003228972941152021
0.0032450750925735257
0.0032289729411581333
0.003181488710377307
0.003104989939239489
0.0030031131404829473
0.0028803668016936465
0.002741688647406044
0.0025920295925711046
0.002436017521052759
0.0022777270048841593
0.0021205558179879644
0.001967191676803555
0.0018196446084085681
0.001679319911798238
0.0015471107393046518
0.001423495054457631
0.001315569940302274
0.0014234950544430396
0.0015380061836444412
0.0016585322680000914
0.0017841581644461007
0.0019135608630082147
0.002044954684523688
0.002176056729327645
0.002304086586581037
0.002425815377076413
0.0025376770616598546
0.002635948254551765
0.002716991194043402
0.0027775395580751437
0.002814992125595087
0.002827669850234748
0.00281499212559965
0.002777539558083884
0.002716991194055991
0.0026359482545673762
0.002537677061677784
0.0024258153770958107
0.0023040865866012024
0.0021760567293478525
0.0020449546845435116
0.0019135608630270853
0.0017841581644638556
0.0016585322680164691
0.00153800618365948
0.0014234950544566626
0.0013155699403144636
0.0013555422264514162
0.001469662841883546
0.0015911458469165165
0.0017194405826993042
0.0018536213947435484
0.001992312468998907
0.0021336209665719125
0.0022750912576849818
0.0024136966058613167
0.0025458864214347307
0.002667705294679626
0.0027749926382054655
0.0028636582581621243
0.0029300111596538008
0.0029711007626907213
0.002985017665581067
0.00297110076269559
0.002930011159663151
0.0028636582581753863
0.002774992638221926
0.0026677052946984226
0.0025458864214549888
0.002413696605882187
0.0022750912577058097
0.0021336209665920734
0.0019923124690180718
0.0018536213947613386
0.0017194405827156503
0.0015911458469313458
0.0014696628418968685
0.0013555422264632771
0.0014696628418818004
0.0016008227348359829
0.0017416140762277342
0.0018916120636664688
0.002049940750663578
0.002215159220813577
0.002385149665128638
0.0025570244556155867
0.002727076577885719
0.0028908035230291724
0.0030430354612456228
0.003178190128360831
0.0032906566015522285
0.0033752793797491945
0.0034278802392879045
0.0034457302724380835
0.0034278802392945784
0.0033752793797620856
0.0032906566015705324
0.0031781901283832676
0.003043035461271038
0.0028908035230563265
0.0027270765779133697
0.002557024455642895
0.002385149665154751
0.0022151592208379894
0.002049940750686093
0.0018916120636868355
0.001741614076245937
0.0016008227348521837
0.0014696628418960922
0.0015911458469124583
0.001741614076225281
0.0019045697565737143
0.002079827685728109
0.0022666764136290694
0.002463711775891174
0.0026686584298936658
0.002878200385781241
0.0030878550376152664
0.003291938949381554
0.003483681723602975
0.0036555379930522567
0.003799718824489503
0.003908911439638652
0.003977091820689543
0.00400028234172297
0.003977091820698939
0.003908911439656669
0.0037997188245148237
0.003655537993083268
0.0034836817236377376
0.0032919389494181855
0.0030878550376522446
0.0028782003858171187
0.0026686584299275445
0.0024637117759225033
0.0022666764136574733
0.00207982768575352
0.001904569756596121
0.0017416140762449197
0.0015911458469295308
0.0017194405826922426
0.0018916120636607852
0.0020798276857247203
0.0022843064391031677
0.00250468082810401
0.0027397623111001246
0.0029872686174184935
0.0032435349389003795
0.0035032540584044327
0.0037593191345996865
0.004002868287904325
0.004223635223065022
0.004410673986361088
0.004553437772045789
0.0046430681295594215
0.004673640101982771
0.004643068129572698
0.004553437772071216
0.0044106739863966305
0.0042236352231080606
0.004002868287952023
0.0037593191346493708
0.0035032540584538307
0.00324353493894766
0.0029872686174625632
0.0027397623111402435
0.0025046808281398423
0.002284306439134716
0.0020798276857521996
0.0018916120636845888
0.0017194405827126917
0.0018536213947327003
0.002049940750653637
0.002266676413620976
0.002504680828099111
0.0027641982145620685
0.00304454830487188
0.003343727571676104
0.0036579428438584965
0.003981127854551912
0.004304547208643982
0.004616654601172561
0.004903412374700878
0.005149248123511984
0.0053386798700445015
0.005458400684225814
0.005499375550564171
0.005458400684244773
0.005338679870080706
0.005149248123562212
0.004903412374761038
0.0046166546012384
0.004304547208711582
0.0039811278546180665
0.0036579428439208897
0.0033437275717332843
0.0030445483049230167
0.002764198214607104
0.002504680828138165
0.0022666764136545885
0.002049940750682362
0.0018536213947569708
0.0019923124689833816
0.0022151592207981436
0.0024637117758769186
0.0027397623110883853
0.0030445483048645848
0.003378349675906619
0.003739934773878797
0.004125845562411924
0.004529559915580152
0.004940660268471939
0.005344271546058539
0.005721162116804423
0.006048921163519001
0.0063044059439073
0.006467177061516599
0.006523116553149557
0.006467177061544007
0.006304405943959202
0.006048921163590354
0.005721162116888943
0.005344271546149719
0.004940660268564056
0.004529559915668781
0.004125845562494099
0.0037399347739527624
0.003378349675971699
0.0030445483049208735
0.002739762311136542
0.0024637117759176565
0.0022151592208324183
0.001992312469012047
0.0021336209665505272
0.0023851496651064556
0.0026686584298713234
0.002987268617397462
0.0033437275716584297
0.003739934773867686
0.0041762215970929835
0.0046503190294417155
0.005155994969455934
0.0056814760884014385
0.006208024592134835
0.00670937859484907
0.007152975995816328
0.007503603732906921
0.00772916473678601
0.007807067091907634
0.007729164736825794
0.007503603732981981
0.0071529759959184525
0.006709378594968327
0.006208024592261375
0.005681476088526957
0.005155994969574352
0.004650319029549389
0.00417622159718807
0.003739934773949908
0.00334372757172838
0.0029872686174563286
0.002668658429920412
0.002385149665147163
0.002133620966584206
0.002275091257656819
0.002557024455585065
0.0028782003857489055
0.003243534938867262
0.0036579428438266973
0.004125845562384716
0.004650319029424199
0.005231712457465685
0.005865578845499549
0.0065399054471328025
0.0072320550522784605
0.007906589447029724
0.008515923971300188
0.009005625167952792
0.009324267008382014
0.009434950101358105
0.009324267008440397
0.009005625168062
0.008515923971446925
0.007906589447198383
0.007232055052453977
0.006539905447303267
0.005865578845657005
0.005231712457605788
0.004650319029545501
0.004125845562487601
0.003657942843912697
0.0032435349389384914
0.0028782003858073496
0.0025570244556329534
0.0022750912576959105
0.0024136966058252683
0.002727076577845336
0.0030878550375706996
0.0035032540583562143
0.003981127854501602
0.004529559915530658
0.005155994969412516
0.005865578845471
0.006658273242712269
0.007524366166959244
0.00843855069120117
0.009354229232977615
0.010201920811739578
0.01089649985424824
0.011354325266049795
0.01151435935574643
0.011354325266135635
0.010896499854407604
0.010201920811950897
0.009354229233215943
0.008438550691443735
0.007524366167189199
0.006658273242919532
0.005865578845651248
0.005155994969565238
0.004529559915657704
0.003981127854605911
0.003503254058441189
0.0030878550376395226
0.002727076577900885
0.002413696605870114
0.002545886421389948
0.0028908035229776056
0.0032919389493226313
0.0037593191345331946
0.004304547208570384
0.0049406602683931015
0.005681476088321846
0.00653990544706109
0.007524366166910806
0.008632152805460586
0.009839005222587361
0.011086514850540586
0.012274364968511307
0.013268950175600546
0.01393352131020471
0.014167273824065716
0.013933521310330765
0.013268950175832659
0.01227436496881462
0.011086514850875511
0.009839005222919606
0.008632152805767086
0.0075243661671798865
0.0065399054472893865
0.00568147608851105
0.004940660268547466
0.004304547208694969
0.0037593191346330414
0.0032919389494023795
0.0028908035230411785
0.002545886421440639
0.002667705294625238
0.0030430354611816132
0.0034836817235279374
0.0040028682878166235
0.004616654601071096
0.005344271545943239
0.006208024592007736
0.007232055052146076
0.008438550691078189
0.009839005222501957
0.011417617343246825
0.0131067581498271
0.014765325591515442
0.0161857932220965
0.017147210785306434
0.01748709316838985
0.01714721078548906
0.01618579322243037
0.014765325591945265
0.013106758150290837
0.011417617343694047
0.009839005222902566
0.00843855069142026
0.007232055052429154
0.00620802459223728
0.005344271546126918
0.004616654601216908
0.004002868287931824
0.0034836817236187233
0.0030430354612532755
0.002667705294681792
0.0027749926381412104
0.003178190128283879
0.0036555379929598493
0.004223635222954036
0.004903412374567928
0.0057211621166463065
0.00670937859466381
0.007906589446818747
0.009354229232750528
0.01108651485032288
0.013106758149672406
0.015345193456325625
0.017611734526900555
0.019594529455484785
0.020950207329060302
0.02143080646231092
0.02095020732931643
0.01959452945595083
0.017611734527492543
0.015345193456949732
0.013106758150257235
0.011086514850831553
0.009354229233173111
0.007906589447160191
0.006709378594935037
0.005721162116859602
0.0049034123747347174
0.004223635223084085
0.003655537993061236
0.0031781901283629596
0.00277499263820314
0.0028636582580880998
0.0032906566014622935
0.003799718824379455
0.004410673986226044
0.00514924812334577
0.006048921163314334
0.007152975995565539
0.008515923970996674
0.010201920811382466
0.012274364968115075
0.014765325591128088
0.017611734526626226
0.02057136957865817
0.023204487429410007
0.02501581666092235
0.0256581260261263
0.025015816661261934
0.023204487430026677
0.020571369579433802
0.017611734527427918
0.014765325591860326
0.01227436496873533
0.010201920811885493
0.008515923971394768
0.007152975995876257
0.006048921163555067
0.005149248123531644
0.004410673986369386
0.003799718824490143
0.0032906566015479632
0.0028636582581547483
0.0029300111595707496
0.003375279379646927
0.003908911439511897
0.004553437771887615
0.005338679869845802
0.006304405943656446
0.007503603732589459
0.009005625167552147
0.01089649985374913
0.013268950174998897
0.016185793221422166
0.019594529454837882
0.023204487428980226
0.026449952903447635
0.02868798920696591
0.02948073698928703
0.028687989207382757
0.026449952904204713
0.02320448742992715
0.019594529455803672
0.01618579322228807
0.013268950175718129
0.010896499854321897
0.009005625167998228
0.007503603732932998
0.006304405943919581
0.0053386798700470394
0.004553437772041564
0.003908911439629994
0.003375279379737799
0.002930011159640922
0.0029711007625997238
0.003427880239175008
0.00397709182054825
0.004643068129380978
0.005458400683998559
0.006467177061224777
0.007729164736408784
0.009324267007893084
0.011354325265418979