# vtk DataFile Version 2.0
Generated by ksugahar
ASCII
DATASET STRUCTURED_POINTS
DIMENSIONS 31 31 31
ORIGIN -150.0 -150.0 -150.0
SPACING 10.0 10.0 10.0
POINT_DATA 29791
SCALARS B_magnitude float
LOOKUP_TABLE default
6.614807571437609e-07
7.15278592660484e-07
7.720887615270557e-07
8.31548486259244e-07
8.931231284288741e-07
9.56084259175491e-07
1.0194958014109171e-06
1.0822129096134745e-06
1.1428982529043384e-06
1.2000594444645438e-06
1.252109323199099e-06
1.29744769493842e-06
1.3345593690368444e-06
1.3621195980305004e-06
1.3790952452199851e-06
1.3848290023698212e-06
1.3790952452201264e-06
1.3621195980299674e-06
1.3345593690368449e-06
1.2974476949387754e-06
1.252109323198783e-06
1.2000594444647075e-06
1.1428982529040852e-06
1.0822129096136067e-06
1.0194958014112606e-06
9.560842591746042e-07
8.931231284278293e-07
8.315484862596707e-07
7.720887615274368e-07
7.152785926608799e-07
6.614807571443049e-07
7.152780166341735e-07
7.765868635004898e-07
8.417519354709789e-07
9.104090804856611e-07
9.819825807743194e-07
1.0556521472012091e-06
1.1303290255270408e-06
1.2046478161256225e-06
1.2769809253736416e-06
1.3454815619513664e-06
1.408158508487036e-06
1.462981552330591e-06
1.5080109926137087e-06
1.5415391246707553e-06
1.5622274087960974e-06
1.5692214236255578e-06
1.5622274087958105e-06
1.5415391246707195e-06
1.5080109926139037e-06
1.4629815523310338e-06
1.408158508486899e-06
1.3454815619515043e-06
1.2769809253735152e-06
1.2046478161253966e-06
1.1303290255273963e-06
1.0556521472018379e-06
9.819825807745142e-07
9.10409080486286e-07
8.417519354712329e-07
7.765868635001746e-07
7.152780166323779e-07
7.720873763216036e-07
8.417510455512808e-07
9.162911848305455e-07
9.953598504876179e-07
1.0783512314011594e-06
1.1643536721773387e-06
1.2521115846733109e-06
1.3400064502143296e-06
1.4260669753171846e-06
1.5080174440901298e-06
1.5833697914892013e-06
1.6495588481814197e-06
1.7041123604372323e-06
1.7448393772007564e-06
1.7700144808675445e-06
1.7785329712795243e-06
1.7700144808677507e-06
1.7448393772007521e-06
1.7041123604375326e-06
1.6495588481824253e-06
1.583369791489447e-06
1.5080174440901262e-06
1.4260669753170764e-06
1.3400064502134834e-06
1.2521115846729708e-06
1.16435367217796e-06
1.0783512314009633e-06
9.953598504871694e-07
9.162911848308665e-07
8.41751045550857e-07
7.720873763218376e-07
8.315460620084107e-07
9.104069593052964e-07
9.953584917206225e-07
1.0860920166463165e-06
1.1819879461492578e-06
1.2820480332140787e-06
1.3848378598175307e-06
1.488452175701041e-06
1.5905174621764775e-06
1.6882451554892306e-06
1.7785443312414802e-06
1.8581941720813627e-06
1.9240653856435376e-06
1.9733683571467416e-06
2.0038972666707608e-06
2.014236265999874e-06
2.0038972666710365e-06
1.9733683571466078e-06
1.9240653856433715e-06
1.8581941720813364e-06
1.7785443312414575e-06
1.6882451554900844e-06
1.5905174621762424e-06
1.4884521757011282e-06
1.384837859817315e-06
1.282048033213956e-06
1.1819879461494604e-06
1.086092016646728e-06
9.953584917212368e-07
9.104069593056483e-07
8.315460620087688e-07
8.931194926457243e-07
9.81978923839955e-07
1.0783480403270607e-06
1.181985919407503e-06
1.292280910580203e-06
1.4081575543951223e-06
1.5279933380005226e-06
1.6495624483012898e-06
1.7700267068491502e-06
1.8859931140696562e-06
1.9936512474078814e-06
2.0889918884256824e-06
2.1680925464769637e-06
2.2274397834042533e-06
2.264246898408655e-06
2.2767220089087066e-06
2.264246898408267e-06
2.2274397834044477e-06
2.1680925464770806e-06
2.0889918884257006e-06
1.9936512474075426e-06
1.8859931140695059e-06
1.7700267068495208e-06
1.6495624483009237e-06
1.527993338000637e-06
1.408157554394509e-06
1.2922809105806996e-06
1.1819859194079028e-06
1.0783480403274495e-06
9.819789238393548e-07
8.931194926461914e-07
9.560793715614122e-07
1.0556467862710704e-06
1.1643482941572331e-06
1.2820433821028472e-06
1.4081546488437574e-06
1.5415429656233954e-06
1.6803912362593285e-06
1.822119759357408e-06
1.963361071244335e-06
2.100021647238644e-06
2.2274494011152668e-06
2.3407092241020347e-06
2.43494689960251e-06
2.5058005382688146e-06
2.5498046525385335e-06
2.5647292163177414e-06
2.5498046525386165e-06
2.5058005382687486e-06
2.434946899602347e-06
2.3407092241027903e-06
2.2274494011155137e-06
2.1000216472382954e-06
1.9633610712451915e-06
1.822119759357496e-06
1.680391236259636e-06
1.5415429656238458e-06
1.408154648843879e-06
1.2820433821021784e-06
1.1643482941587485e-06
1.0556467862712301e-06
9.560793715621246e-07
1.0194898378894174e-06
1.130322052120247e-06
1.2521039544628097e-06
1.3848302773207535e-06
1.5279868963932993e-06
1.6803873226320911e-06
1.8400155649248127e-06
2.0039058418202035e-06
2.168097021144986e-06
2.327699395453808e-06
2.477099589602e-06
2.6103058055505015e-06
2.7214053977179298e-06
2.8050792454645066e-06
2.857101670241868e-06
2.874754966223149e-06
2.85710167024176e-06
2.805079245464345e-06
2.72140539771798e-06
2.6103058055498345e-06
2.47709958960126e-06
2.3276993954532886e-06
2.168097021144809e-06
2.0039058418198647e-06
1.8400155649245742e-06
1.6803873226320954e-06
1.5279868963928187e-06
1.3848302773200418e-06
1.2521039544629732e-06
1.1303220521196548e-06
1.0194898378893185e-06
1.082206331337119e-06
1.2046396980890667e-06
1.3399969727513346e-06
1.48844190528327e-06
1.6495524356890742e-06
1.8221115073298338e-06
2.0039010414485872e-06
2.191538972824779e-06
2.3804099283358178e-06
2.564739875527455e-06
2.7378482026864533e-06
2.8925773948947853e-06
3.021859414030407e-06
3.1193435425827524e-06
3.1799953380724165e-06
3.2005836619844685e-06
3.1799953380723102e-06
3.119343542582825e-06
3.021859414030389e-06
2.8925773948949856e-06
2.7378482026863127e-06
2.5647398755276614e-06
2.3804099283358415e-06
2.191538972824947e-06
2.003901041448923e-06
1.822111507329422e-06
1.6495524356892815e-06
1.4884419052834952e-06
1.339996972751751e-06
1.204639698088972e-06
1.0822063313367047e-06
1.1428918253449573e-06
1.2769725656434695e-06
1.4260566466105086e-06
1.5905055059469498e-06
1.77001400217154e-06
1.9633490818373704e-06
2.1680875982230316e-06
2.380404791322535e-06
2.5949796694011505e-06
2.8050827962728457e-06
3.0028877547172776e-06
3.1800010336783814e-06
3.328150451916182e-06
3.439931354131956e-06
3.5094991782417134e-06
3.5331167180077368e-06
3.5094991782413872e-06
3.439931354131262e-06
3.328150451915873e-06
3.180001033677729e-06
3.0028877547172695e-06
2.8050827962725954e-06
2.5949796694009604e-06
2.3804047913219333e-06
2.1680875982227245e-06
1.963349081836679e-06
1.770014002171925e-06
1.590505505947678e-06
1.4260566466104135e-06
1.276972565644009e-06
1.1428918253444332e-06
1.20005417122218e-06
1.3454742417487053e-06
1.5080078234111116e-06
1.6882333019393686e-06
1.8859796233512295e-06
2.100007772719428e-06
2.3276869464395e-06
2.564730760843972e-06
2.805078275646447e-06
3.0410025571218686e-06
3.2634950677565573e-06
3.4629105436039757e-06
3.62978637586937e-06
3.7557045063127736e-06
3.834062927663876e-06
3.8606622152436575e-06
3.834062927663959e-06
3.7557045063129752e-06
3.6297863758696485e-06
3.4629105436040503e-06
3.263495067756839e-06
3.0410025571218047e-06
2.8050782756465526e-06
2.564730760844813e-06
2.3276869464402713e-06
2.100007772719811e-06
1.8859796233503846e-06
1.6882333019389087e-06
1.5080078234111844e-06
1.345474241749674e-06
1.2000541712232136e-06
1.2521062764446857e-06
1.4081536773533596e-06
1.583362756781376e-06
1.7785348909878873e-06
1.993639643733989e-06
2.227436517984812e-06
2.477086962603494e-06
2.737837678742297e-06
3.002880803632045e-06
3.2634920633183724e-06
3.5095003979608374e-06
3.730058330822197e-06
3.914594255097984e-06
4.05377924759625e-06
4.140355567013513e-06
4.16973651044488e-06
4.140355567013518e-06
4.0537792475962e-06
3.91459425509781e-06
3.7300583308217337e-06
3.5095003979613554e-06
3.2634920633185486e-06
3.0028808036326604e-06
2.737837678742757e-06
2.477086962603602e-06
2.227436517984625e-06
1.993639643734161e-06
1.7785348909883927e-06
1.583362756782351e-06
1.408153677353077e-06
1.2521062764445711e-06
1.2974477606947257e-06
1.4629804798327003e-06
1.649556139263642e-06
1.8581894069509592e-06
2.0889849354805768e-06
2.3407004752714385e-06
2.610296296917812e-06
2.892568630111076e-06
3.1799944409839213e-06
3.462906795518559e-06
3.7300570181032184e-06
3.969512900947789e-06
4.1697368315289996e-06
4.3206398823576286e-06
4.414442678410247e-06
4.446263795279388e-06
4.414442678410251e-06
4.320639882357614e-06
4.169736831529281e-06
3.969512900947259e-06
3.7300570181031024e-06
3.462906795518864e-06
3.179994440983806e-06
2.89256863011122e-06
2.6102962969182522e-06
2.340700475270778e-06
2.0889849354805717e-06
1.8581894069505355e-06
1.6495561392625841e-06
1.4629804798327442e-06
1.2974477606945936e-06
1.334562970335331e-06
1.5080143673074614e-06
1.7041150214950676e-06
1.924066770743321e-06
2.1680921756556553e-06
2.434944610674735e-06
2.721401560852848e-06
3.0218549484739046e-06
3.3281465070595746e-06
3.6297837742800572e-06
3.914593084457506e-06
4.169736556469128e-06
4.382899382967733e-06
4.543409665833746e-06
4.643110087678614e-06
4.676917690946243e-06
4.643110087678102e-06
4.5434096658336085e-06
4.382899382968174e-06
4.16973655646856e-06
3.914593084457702e-06
3.6297837742795647e-06
3.3281465070593044e-06
3.0218549484738005e-06
2.7214015608531075e-06
2.4349446106746863e-06
2.168092175656156e-06
1.9240667707422947e-06
1.7041150214951622e-06
1.508014367306778e-06
1.334562970335327e-06
1.3621264908338432e-06
1.5415467409678708e-06
1.744847299102304e-06
1.973375949635228e-06
2.227446281494005e-06
2.5058052536768137e-06
2.8050818479641293e-06
3.119344265948426e-06
3.439930935326657e-06
3.755703809785542e-06
4.053778813013291e-06
4.320639765396537e-06
4.5434096721521025e-06
4.711014475531842e-06
4.8150517925841685e-06
4.850316845638258e-06
4.815051792584244e-06
4.711014475532055e-06
4.543409672151868e-06
4.3206397653968975e-06
4.053778813013262e-06
3.755703809784772e-06
3.4399309353262e-06
3.1193442659482016e-06
2.80508184796442e-06
2.5058052536775456e-06
2.2274462814939897e-06
1.9733759496349566e-06
1.7448472991020547e-06
1.5415467409680864e-06
1.3621264908344617e-06
1.3791044781262858e-06
1.5622380833786718e-06
1.7700262533755414e-06
2.0039094752193334e-06
2.2642585893569457e-06
2.5498147526552175e-06
2.8571093056941824e-06
3.1800001809693753e-06
3.5095015972829283e-06
3.834063779018709e-06
4.140355729569746e-06
4.41444268281906e-06
4.64311009293435e-06
4.815051797436768e-06
4.921731732664181e-06
4.95788329840051e-06
4.921731732664012e-06
4.8150517974366804e-06
4.64311009293472e-06
4.414442682819363e-06
4.140355729569432e-06
3.834063779018826e-06
3.5095015972828114e-06
3.180000180968877e-06
2.8571093056953093e-06
2.549814752655263e-06
2.26425858935666e-06
2.0039094752197938e-06
1.7700262533743693e-06
1.5622380833788408e-06
1.3791044781266376e-06
1.384839082882139e-06
1.5692332132078064e-06
1.7785461572903523e-06
2.0142501809552935e-06
2.2767356328338546e-06
2.564741333781125e-06
2.874764497140331e-06
3.2005900603825326e-06
3.5331202049527428e-06
3.860663637741565e-06
4.169736876148495e-06
4.446263820944766e-06
4.6769176767553215e-06
4.850316842594703e-06
4.95788329835876e-06
4.994331977898253e-06
4.957883298358912e-06
4.85031684259515e-06
4.6769176767557256e-06
4.446263820945482e-06
4.169736876149835e-06
3.86066363774255e-06
3.5331202049543166e-06
3.200590060384001e-06
2.8747644971415327e-06
2.5647413337821702e-06
2.276735632835743e-06
2.0142501809552825e-06
1.778546157291354e-06
1.5692332132100917e-06
1.38483908288425e-06
1.3791044781263083e-06
1.5622380833783442e-06
1.7700262533752272e-06
2.003909475219838e-06
2.264258589356587e-06
2.549814752654808e-06
2.8571093056954152e-06
3.180000180968239e-06
3.509501597282353e-06
3.834063779018632e-06
4.140355729568759e-06
4.414442682818776e-06
4.643110092934082e-06
4.815051797436119e-06
4.921731732663655e-06
4.957883298400053e-06
4.921731732663932e-06
4.815051797436679e-06
4.64311009293421e-06
4.4144426828190614e-06
4.14035572956921e-06
3.834063779018802e-06
3.5095015972828215e-06
3.1800001809691525e-06
2.857109305695626e-06
2.549814752654802e-06
2.2642585893576106e-06
2.0039094752195426e-06
1.7700262533751065e-06
1.5622380833788846e-06
1.3791044781272826e-06
1.3621264908336433e-06
1.5415467409680652e-06
1.7448472991018614e-06
1.9733759496356753e-06
2.2274462814934853e-06
2.5058052536766558e-06
2.8050818479645126e-06
3.119344265948689e-06
3.4399309353267963e-06
3.755703809785317e-06
4.053778813012214e-06
4.32063976539647e-06
4.543409672151994e-06
4.7110144755317135e-06
4.8150517925838135e-06
4.8503168456377455e-06
4.815051792583448e-06
4.711014475531574e-06
4.543409672151762e-06
4.3206397653969585e-06
4.053778813013065e-06
3.755703809784168e-06
3.439930935326713e-06
3.119344265947879e-06
2.8050818479640734e-06
2.505805253677754e-06
2.2274462814938457e-06
1.9733759496347965e-06
1.7448472991023023e-06
1.5415467409684406e-06
1.3621264908338747e-06
1.3345629703349353e-06
1.508014367306861e-06
1.704115021495379e-06
1.924066770743584e-06
2.168092175656221e-06
2.4349446106750463e-06
2.7214015608533104e-06
3.0218549484733824e-06
3.3281465070591295e-06
3.629783774280443e-06
3.914593084457797e-06
4.169736556469055e-06
4.382899382968118e-06
4.543409665833166e-06
4.64311008767816e-06
4.676917690946091e-06
4.643110087678091e-06
4.54340966583316e-06
4.382899382967971e-06
4.169736556468913e-06
3.9145930844579014e-06
3.629783774280346e-06
3.3281465070593086e-06
3.0218549484736022e-06
2.7214015608528894e-06
2.4349446106750374e-06
2.1680921756560073e-06
1.9240667707431735e-06
1.7041150214950606e-06
1.5080143673062811e-06
1.334562970335484e-06
1.2974477606941118e-06
1.4629804798328877e-06
1.6495561392626747e-06
1.8581894069513024e-06
2.0889849354801198e-06
2.3407004752709523e-06
2.610296296917676e-06
2.89256863011119e-06
3.1799944409833445e-06
3.462906795518967e-06
3.7300570181032705e-06
3.969512900947145e-06
4.169736831528467e-06
4.32063988235712e-06
4.414442678409472e-06
4.446263795278547e-06
4.4144426784097095e-06
4.3206398823568256e-06
4.169736831528472e-06
3.969512900947219e-06
3.730057018103211e-06
3.462906795518767e-06
3.1799944409838116e-06
2.8925686301111303e-06
2.6102962969178935e-06
2.340700475270749e-06
2.0889849354805988e-06
1.8581894069509801e-06
1.6495561392634693e-06
1.462980479832965e-06
1.2974477606945622e-06
1.252106276444401e-06
1.4081536773536264e-06
1.5833627567814457e-06
1.7785348909880217e-06
1.993639643734533e-06
2.2274365179838943e-06
2.4770869626027883e-06
2.7378376787425543e-06
3.0028808036318434e-06
3.2634920633179367e-06
3.509500397960647e-06
3.7300583308214055e-06
3.914594255096674e-06
4.053779247595682e-06
4.140355567012984e-06
4.169736510444001e-06
4.140355567012621e-06
4.05377924759574e-06
3.914594255096423e-06
3.7300583308216727e-06
3.5095003979606477e-06
3.263492063318336e-06
3.002880803632872e-06
2.737837678742955e-06
2.477086962602759e-06
2.227436517984683e-06
1.993639643734058e-06
1.7785348909884563e-06
1.5833627567826614e-06
1.4081536773536806e-06
1.2521062764436351e-06
1.2000541712223892e-06
1.3454742417484486e-06
1.5080078234116012e-06
1.6882333019397096e-06
1.885979623350813e-06
2.1000077727197993e-06
2.327686946439996e-06
2.56473076084457e-06
2.805078275646973e-06
3.041002557122447e-06
3.263495067756262e-06
3.4629105436041396e-06
3.6297863758696896e-06
3.7557045063134034e-06
3.834062927663731e-06
3.8606622152433e-06
3.834062927664017e-06
3.7557045063129464e-06
3.629786375869736e-06
3.462910543603607e-06
3.2634950677564133e-06
3.041002557122094e-06
2.8050782756475776e-06
2.5647307608452897e-06
2.327686946440457e-06
2.100007772719315e-06
1.8859796233505532e-06
1.6882333019385938e-06
1.5080078234118872e-06
1.345474241749443e-06
1.2000541712232275e-06
1.1428918253447164e-06
1.2769725656440086e-06
1.426056646610347e-06
1.5905055059471861e-06
1.7700140021717471e-06
1.9633490818378252e-06
2.1680875982232196e-06
2.380404791322769e-06
2.5949796694006643e-06
2.805082796272437e-06
3.0028877547175224e-06
3.180001033678963e-06
3.3281504519166744e-06
3.4399313541321243e-06
3.5094991782411297e-06
3.533116718007519e-06
3.5094991782414025e-06
3.4399313541318283e-06
3.3281504519160345e-06
3.1800010336785503e-06
3.0028877547169815e-06
2.8050827962728157e-06
2.594979669400397e-06
2.3804047913223513e-06
2.1680875982228876e-06
1.963349081836987e-06
1.7700140021712107e-06
1.5905055059477943e-06
1.426056646610294e-06
1.2769725656443595e-06
1.142891825344543e-06
1.0822063313372747e-06
1.2046396980894777e-06
1.3399969727514056e-06
1.4884419052832697e-06
1.6495524356885427e-06
1.8221115073296659e-06
2.003901041448965e-06
2.1915389728249165e-06
2.380409928335974e-06
2.5647398755278367e-06
2.737848202685969e-06
2.8925773948952816e-06
3.0218594140303485e-06
3.1193435425833454e-06
3.179995338072397e-06
3.2005836619833123e-06
3.1799953380722823e-06
3.1193435425836723e-06
3.0218594140303528e-06
2.8925773948952545e-06
2.737848202685993e-06
2.5647398755281014e-06
2.380409928335931e-06
2.1915389728249644e-06
2.0039010414483526e-06
1.8221115073295835e-06
1.649552435688802e-06
1.488441905283222e-06
1.3399969727509842e-06
1.204639698088744e-06
1.0822063313361907e-06
1.0194898378896876e-06
1.1303220521200597e-06
1.2521039544623282e-06
1.3848302773209995e-06
1.5279868963927534e-06
1.680387322631108e-06
1.840015564924622e-06
2.003905841819761e-06
2.16809702114464e-06
2.3276993954531328e-06
2.477099589602297e-06
2.610305805549759e-06
2.721405397716978e-06
2.8050792454630674e-06
2.8571016702409907e-06
2.874754966222212e-06
2.8571016702410644e-06
2.8050792454628514e-06
2.721405397716696e-06
2.610305805549203e-06
2.4770995896020114e-06
2.3276993954530586e-06
2.168097021143885e-06
2.003905841819619e-06
1.8400155649235648e-06
1.6803873226315776e-06
1.5279868963927248e-06
1.3848302773202925e-06
1.252103954462611e-06
1.130322052119841e-06
1.019489837889059e-06
9.560793715606567e-07
1.0556467862705298e-06
1.1643482941575425e-06
1.282043382103562e-06
1.4081546488431295e-06
1.5415429656231053e-06
1.68039123625905e-06
1.822119759356692e-06
1.9633610712437295e-06
2.1000216472387494e-06
2.227449401114895e-06
2.3407092241021533e-06
2.434946899602159e-06
2.5058005382683814e-06
2.549804652537532e-06
2.5647292163172218e-06
2.5498046525377766e-06
2.5058005382682416e-06
2.4349468996024693e-06
2.3407092241027132e-06
2.227449401114669e-06
2.1000216472382967e-06
1.963361071244025e-06
1.8221197593572847e-06
1.6803912362595714e-06
1.5415429656236122e-06
1.408154648843828e-06
1.2820433821025024e-06
1.164348294157889e-06
1.0556467862710624e-06
9.560793715615636e-07
8.931194926460961e-07
9.819789238402992e-07
1.0783480403266927e-06
1.181985919407603e-06
1.2922809105797255e-06
1.4081575543945923e-06
1.5279933380002795e-06
1.6495624483006389e-06
1.7700267068487824e-06
1.8859931140697236e-06
1.9936512474072305e-06
2.0889918884250247e-06
2.1680925464767206e-06
2.227439783403624e-06
2.2642468984081152e-06
2.2767220089083094e-06
2.2642468984079683e-06
2.227439783403667e-06
2.168092546476817e-06
2.0889918884252224e-06
1.9936512474068587e-06
1.8859931140693625e-06
1.770026706849095e-06
1.6495624482998838e-06
1.5279933380002914e-06
1.408157554394452e-06
1.2922809105798691e-06
1.1819859194074196e-06
1.078348040327173e-06
9.819789238396904e-07
8.93119492646072e-07
8.315460620072592e-07
9.104069593054338e-07
9.953584917205778e-07
1.0860920166465518e-06
1.1819879461491635e-06
1.2820480332143587e-06
1.384837859816862e-06
1.4884521757013702e-06
1.5905174621765078e-06
1.6882451554898629e-06
1.7785443312410636e-06
1.858194172081187e-06
1.9240653856431445e-06
1.9733683571465557e-06
2.003897266670613e-06
2.0142362659994204e-06
2.003897266670689e-06
1.97336835714592e-06
1.924065385643176e-06
1.8581941720813608e-06
1.7785443312412737e-06
1.6882451554899656e-06
1.590517462176496e-06
1.488452175700423e-06
1.3848378598171813e-06
1.2820480332145024e-06
1.1819879461490341e-06
1.0860920166470903e-06
9.953584917216027e-07
9.104069593050796e-07
8.315460620086421e-07
7.720873763216586e-07
8.417510455513216e-07
9.162911848305112e-07
9.953598504874142e-07
1.0783512313999107e-06
1.1643536721777413e-06
1.252111584673171e-06
1.340006450213686e-06
1.4260669753165484e-06
1.5080174440897116e-06
1.5833697914889072e-06
1.6495588481812854e-06
1.704112360436993e-06
1.7448393772002043e-06
1.7700144808668571e-06
1.7785329712786315e-06
1.7700144808672377e-06
1.7448393772002318e-06
1.7041123604374394e-06
1.6495588481817143e-06
1.5833697914888875e-06
1.5080174440895525e-06
1.4260669753167869e-06
1.3400064502129608e-06
1.2521115846728742e-06
1.1643536721775854e-06
1.0783512314011069e-06
9.953598504870847e-07
9.16291184830877e-07
8.417510455507855e-07
7.720873763208528e-07
7.152780166338949e-07
7.765868635004019e-07
8.417519354704493e-07
9.104090804862915e-07
9.819825807743584e-07
1.0556521472013917e-06
1.13032902552671e-06
1.204647816125287e-06
1.2769809253735733e-06
1.3454815619518285e-06
1.4081585084871949e-06
1.4629815523312435e-06
1.5080109926140458e-06
1.5415391246709886e-06
1.5622274087960949e-06
1.5692214236258532e-06
1.562227408796134e-06
1.5415391246709424e-06
1.5080109926140043e-06
1.4629815523315331e-06
1.4081585084870515e-06
1.34548156195173e-06
1.2769809253736802e-06
1.2046478161256553e-06
1.130329025527248e-06
1.0556521472017955e-06
9.819825807744723e-07
9.104090804863863e-07
8.417519354712057e-07
7.765868634997931e-07
7.152780166324861e-07
6.614807571436155e-07
7.152785926607169e-07
7.720887615269625e-07
8.315484862598923e-07
8.931231284290298e-07
9.560842591749428e-07
1.019495801410814e-06
1.0822129096130616e-06
1.1428982529039111e-06
1.2000594444644942e-06
1.2521093231987108e-06
1.2974476949382318e-06
1.3345593690362602e-06
1.362119598029934e-06
1.379095245220441e-06
1.3848290023692844e-06
1.3790952452200406e-06
1.3621195980296893e-06
1.3345593690363324e-06
1.2974476949383785e-06
1.252109323198769e-06
1.2000594444645413e-06
1.1428982529038402e-06
1.0822129096130146e-06
1.0194958014108492e-06
9.560842591747344e-07
8.931231284282452e-07
8.315484862591797e-07
7.720887615272346e-07
7.152785926605526e-07
6.614807571439288e-07
6.88762526480532e-07
7.46971660024823e-07
8.087729294754909e-07
8.738194319284168e-07
9.415674103547865e-07
1.011245500201269e-06
1.0818321375010943e-06
1.1520472249451381e-06
1.2203645689751446e-06
1.28505083265416e-06
1.3442344106009939e-06
1.3960036525858967e-06
1.4385286667993404e-06
1.4701954940769033e-06
1.4897371104969951e-06
1.4963438309668838e-06
1.4897371104968166e-06
1.4701954940769064e-06
1.438528666799472e-06
1.3960036525862988e-06
1.3442344106012918e-06
1.2850508326540966e-06
1.2203645689755706e-06
1.1520472249452675e-06
1.0818321375010953e-06
1.0112455002011515e-06
9.41567410354747e-07
8.738194319287064e-07
8.087729294756428e-07
7.469716600250448e-07
6.887625264801176e-07
7.469708989332036e-07
8.136805460470364e-07
8.850184316804742e-07
9.606566303526217e-07
1.040024460981003e-06
1.1222623654863341e-06
1.2061843798345644e-06
1.2902578703538476e-06
1.3726102944518424e-06
1.451072136734784e-06
1.5232621657772497e-06
1.5867155208655596e-06
1.6390474404956486e-06
1.6781371631163214e-06
1.702309786078856e-06
1.7104907825593653e-06
1.7023097860788805e-06
1.6781371631169574e-06
1.6390474404955768e-06
1.5867155208656227e-06
1.5232621657776361e-06
1.4510721367349128e-06
1.3726102944513824e-06
1.2902578703538554e-06
1.2061843798344447e-06
1.122262365486509e-06
1.0400244609813173e-06
9.60656630352484e-07
8.850184316800181e-07
8.13680546046458e-07
7.46970898933802e-07
8.087710659143231e-07
8.850172082704241e-07
9.671591323598e-07
1.0549162093008124e-06
1.1477118293946863e-06
1.2446062846634782e-06
1.3442378852449338e-06
1.4447844644647599e-06
1.5439596422729937e-06
1.6390580281669986e-06
1.7270597234454377e-06
1.8047965167008377e-06
1.8691708426291044e-06
1.917406170619663e-06
1.947297312552228e-06
1.9574244401966754e-06
1.947297312551668e-06
1.917406170619061e-06
1.8691708426290303e-06
1.8047965167013932e-06
1.727059723446077e-06
1.6390580281676409e-06
1.5439596422728976e-06
1.4447844644641839e-06
1.3442378852450111e-06
1.2446062846640188e-06
1.1477118293944345e-06
1.0549162093014598e-06
9.671591323591788e-07
8.85017208270005e-07
8.087710659141799e-07
8.73816109640236e-07
9.606536530353955e-07
1.0549142538229912e-06
1.156401983831936e-06
1.2645644837155336e-06
1.3783978272916532e-06
1.496358006438709e-06
1.6162958385773936e-06
1.735436118352575e-06
1.8504224525504425e-06
1.957444350201839e-06
2.0524518330243775e-06
2.1314462675715857e-06
2.1908178989094116e-06
2.2276858122826228e-06
2.2401895480198286e-06
2.2276858122827066e-06
2.1908178989094133e-06
2.131446267571547e-06
2.0524518330244754e-06
1.9574443502016407e-06
1.8504224525506193e-06
1.7354361183531567e-06
1.6162958385781233e-06
1.496358006439248e-06
1.3783978272922927e-06
1.264564483715209e-06
1.156401983832184e-06
1.0549142538235547e-06
9.606536530357601e-07
8.738161096398905e-07
9.415623335168086e-07
1.0400192184999913e-06
1.1477071268752875e-06
1.2645614104903411e-06
1.3900937756792772e-06
1.5232606383380922e-06
1.6623346857437094e-06
1.804802594513515e-06
1.947318641014524e-06
2.0857458864284056e-06
2.215310275015989e-06
2.330876746578229e-06
2.4273323209078935e-06
2.5000349405526186e-06
2.545266572944407e-06
2.5606213256079285e-06
2.545266572944787e-06
2.5000349405527075e-06
2.427332320907825e-06
2.330876746577902e-06
2.2153102750166902e-06
2.085745886428258e-06
1.9473186410144433e-06
1.8048025945137688e-06
1.662334685744423e-06
1.5232606383384613e-06
1.3900937756803856e-06
1.2645614104903066e-06
1.1477071268750243e-06
1.0400192185006342e-06
9.415623335174011e-07
1.0112385463627135e-06
1.1222545158211335e-06
1.2445981686737415e-06
1.3783905852021493e-06
1.5232559674202265e-06
1.678143565047493e-06
1.8411470284517584e-06
2.009352227067654e-06
2.178755450747763e-06
2.344297821863635e-06
2.5000530782071633e-06
2.6395821552415203e-06
2.7564328691817746e-06
2.8447263796101815e-06
2.8997461568984763e-06
2.918438407460621e-06
2.8997461568983734e-06
2.8447263796098884e-06
2.7564328691813926e-06
2.639582155241785e-06
2.500053078206618e-06
2.3442978218637515e-06
2.178755450747741e-06
2.0093522270675295e-06
1.8411470284512807e-06
1.678143565047838e-06
1.5232559674200624e-06
1.3783905852026557e-06
1.2445981686736036e-06
1.1222545158208095e-06
1.0112385463633585e-06
1.0818234951197622e-06
1.2061739538226279e-06
1.3442260971038809e-06
1.4963458872389282e-06
1.662324027721823e-06
1.8411403261907044e-06
2.030716855644058e-06
2.227701558543881e-06
2.4273406609765186e-06
2.6235048132170996e-06
2.8089212822072887e-06
2.975629221310598e-06
3.1156240709559632e-06
3.221607440306753e-06
3.2877288951872936e-06
3.3102054418628985e-06
3.287728895187047e-06
3.22160744030638e-06
3.1156240709560924e-06
2.975629221310845e-06
2.8089212822074966e-06
2.623504813216457e-06
2.4273406609761235e-06
2.227701558543814e-06
2.0307168556444804e-06
1.8411403261910345e-06
1.662324027721307e-06
1.4963458872379755e-06
1.344226097103484e-06
1.206173953823233e-06
1.081823495119852e-06
1.1520375203982534e-06
1.2902454854988616e-06
1.4447694863144502e-06
1.6162790036087144e-06
1.8047855632458878e-06
2.009337668163676e-06
2.2276927891840707e-06
2.4560218814119248e-06
2.688726653276159e-06
2.918459556193535e-06
3.1364171741964515e-06
3.3329246848307607e-06
3.4982556964088237e-06
3.62356677835516e-06
3.701796907358438e-06
3.728396872816815e-06
3.7017969073585137e-06
3.6235667783551117e-06
3.4982556964087953e-06
3.332924684831315e-06
3.1364171741960708e-06
2.918459556192811e-06
2.6887266532758056e-06
2.456021881411941e-06
2.227692789184027e-06
2.0093376681648388e-06
1.8047855632457392e-06
1.616279003607906e-06
1.4447694863149848e-06
1.2902454854992737e-06
1.1520375203986066e-06
1.2203549258002908e-06
1.3725972949915596e-06
1.5439429649324072e-06
1.7354160487045484e-06
1.9472964647356065e-06
2.1787337107035723e-06
2.427322959237863e-06
2.688716702926782e-06
2.95638051034599e-06
3.22161455816249e-06
3.4739322666457413e-06
3.7018081935369133e-06
3.893703667024034e-06
4.0391975836531145e-06
4.130030509746887e-06
4.160914244855865e-06
4.130030509746512e-06
4.0391975836530485e-06
3.893703667024257e-06
3.7018081935371767e-06
3.473932266646421e-06
3.2216145581630334e-06
2.9563805103458486e-06
2.6887167029265317e-06
2.427322959237776e-06
2.1787337107040895e-06
1.9472964647356306e-06
1.7354160487049492e-06
1.5439429649329415e-06
1.3725972949911983e-06
1.2203549258000921e-06
1.2850427976667387e-06
1.4510605518115434e-06
1.6390421848484844e-06
1.8504021183573752e-06
2.0857217815888585e-06
2.344272047113042e-06
2.6234808673969418e-06
2.918441532761175e-06
3.221605470081304e-06
3.5228194348643793e-06
3.8098195187616213e-06
4.069178792721308e-06
4.287563434006125e-06
4.453057032823129e-06
4.556316481030044e-06
4.591412484076029e-06
4.556316481029603e-06
4.453057032823279e-06
4.287563434006385e-06
4.069178792721677e-06
3.809819518761249e-06
3.5228194348637177e-06
3.2216054700812223e-06
2.9184415327606015e-06
2.6234808673964852e-06
2.344272047113783e-06
2.0857217815887518e-06
1.850402118357336e-06
1.6390421848489286e-06
1.4510605518104374e-06
1.2850427976663641e-06
1.344229703559888e-06
1.5232543993327132e-06
1.7270479341504265e-06
1.9574278427866845e-06
2.215289116932863e-06
2.500028652199461e-06
2.8088965390803412e-06
3.1363960861119207e-06
3.4739182681776974e-06
3.809813604373576e-06
4.130032782927442e-06
4.419304927169495e-06
4.662636275347258e-06
4.846808493482891e-06
4.961598058220809e-06
5.000588450393888e-06
4.961598058220664e-06
4.846808493483016e-06
4.6626362753471594e-06
4.419304927169196e-06
4.130032782927772e-06
3.8098136043732465e-06
3.4739182681768817e-06
3.1363960861112876e-06
2.8088965390795785e-06
2.500028652198845e-06
2.215289116933663e-06
1.9574278427865926e-06
1.7270479341501872e-06
1.5232543993330362e-06
1.3442297035600546e-06
1.396003755382055e-06
1.5867137735370071e-06
1.8047919088444522e-06
2.0524433650584467e-06
2.3308638539649624e-06
2.639565296955976e-06
2.9756103412101566e-06
3.3329070235362884e-06
3.701795068166877e-06
4.069171773982391e-06
4.419302843782353e-06
4.735246598521951e-06
5.000588366958108e-06
5.201078750546406e-06
5.3258639846391405e-06
5.368216214980068e-06
5.325863984638852e-06
5.201078750546823e-06
5.000588366958016e-06
4.735246598521964e-06
4.419302843782723e-06