# vtk DataFile Version 3.0
Magnetic field map from Radia
ASCII
DATASET STRUCTURED_GRID
DIMENSIONS 31 51 31
POINTS 49011 float
-379.000000 -735.281891 -242.000000
-353.733333 -735.281891 -242.000000
-328.466667 -735.281891 -242.000000
-303.200000 -735.281891 -242.000000
-277.933333 -735.281891 -242.000000
-252.666667 -735.281891 -242.000000
-227.400000 -735.281891 -242.000000
-202.133333 -735.281891 -242.000000
-176.866667 -735.281891 -242.000000
-151.600000 -735.281891 -242.000000
-126.333333 -735.281891 -242.000000
-101.066667 -735.281891 -242.000000
-75.800000 -735.281891 -242.000000
-50.533333 -735.281891 -242.000000
-25.266667 -735.281891 -242.000000
0.000000 -735.281891 -242.000000
25.266667 -735.281891 -242.000000
50.533333 -735.281891 -242.000000
75.800000 -735.281891 -242.000000
101.066667 -735.281891 -242.000000
126.333333 -735.281891 -242.000000
151.600000 -735.281891 -242.000000
176.866667 -735.281891 -242.000000
202.133333 -735.281891 -242.000000
227.400000 -735.281891 -242.000000
252.666667 -735.281891 -242.000000
277.933333 -735.281891 -242.000000
303.200000 -735.281891 -242.000000
328.466667 -735.281891 -242.000000
353.733333 -735.281891 -242.000000
379.000000 -735.281891 -242.000000
-379.000000 -705.870615 -242.000000
-353.733333 -705.870615 -242.000000
-328.466667 -705.870615 -242.000000
-303.200000 -705.870615 -242.000000
-277.933333 -705.870615 -242.000000
-252.666667 -705.870615 -242.000000
-227.400000 -705.870615 -242.000000
-202.133333 -705.870615 -242.000000
-176.866667 -705.870615 -242.000000
-151.600000 -705.870615 -242.000000
-126.333333 -705.870615 -242.000000
-101.066667 -705.870615 -242.000000
-75.800000 -705.870615 -242.000000
-50.533333 -705.870615 -242.000000
-25.266667 -705.870615 -242.000000
0.000000 -705.870615 -242.000000
25.266667 -705.870615 -242.000000
50.533333 -705.870615 -242.000000
75.800000 -705.870615 -242.000000
101.066667 -705.870615 -242.000000
126.333333 -705.870615 -242.000000
151.600000 -705.870615 -242.000000
176.866667 -705.870615 -242.000000
202.133333 -705.870615 -242.000000
227.400000 -705.870615 -242.000000
252.666667 -705.870615 -242.000000
277.933333 -705.870615 -242.000000
303.200000 -705.870615 -242.000000
328.466667 -705.870615 -242.000000
353.733333 -705.870615 -242.000000
379.000000 -705.870615 -242.000000
-379.000000 -676.459339 -242.000000
-353.733333 -676.459339 -242.000000
-328.466667 -676.459339 -242.000000
-303.200000 -676.459339 -242.000000
-277.933333 -676.459339 -242.000000
-252.666667 -676.459339 -242.000000
-227.400000 -676.459339 -242.000000
-202.133333 -676.459339 -242.000000
-176.866667 -676.459339 -242.000000
-151.600000 -676.459339 -242.000000
-126.333333 -676.459339 -242.000000
-101.066667 -676.459339 -242.000000
-75.800000 -676.459339 -242.000000
-50.533333 -676.459339 -242.000000
-25.266667 -676.459339 -242.000000
0.000000 -676.459339 -242.000000
25.266667 -676.459339 -242.000000
50.533333 -676.459339 -242.000000
75.800000 -676.459339 -242.000000
101.066667 -676.459339 -242.000000
126.333333 -676.459339 -242.000000
151.600000 -676.459339 -242.000000
176.866667 -676.459339 -242.000000
202.133333 -676.459339 -242.000000
227.400000 -676.459339 -242.000000
252.666667 -676.459339 -242.000000
277.933333 -676.459339 -242.000000
303.200000 -676.459339 -242.000000
328.466667 -676.459339 -242.000000
353.733333 -676.459339 -242.000000
379.000000 -676.459339 -242.000000
-379.000000 -647.048064 -242.000000
-353.733333 -647.048064 -242.000000
-328.466667 -647.048064 -242.000000
-303.200000 -647.048064 -242.000000
-277.933333 -647.048064 -242.000000
-252.666667 -647.048064 -242.000000
-227.400000 -647.048064 -242.000000
-202.133333 -647.048064 -242.000000
-176.866667 -647.048064 -242.000000
-151.600000 -647.048064 -242.000000
-126.333333 -647.048064 -242.000000
-101.066667 -647.048064 -242.000000
-75.800000 -647.048064 -242.000000
-50.533333 -647.048064 -242.000000
-25.266667 -647.048064 -242.000000
0.000000 -647.048064 -242.000000
25.266667 -647.048064 -242.000000
50.533333 -647.048064 -242.000000
75.800000 -647.048064 -242.000000
101.066667 -647.048064 -242.000000
126.333333 -647.048064 -242.000000
151.600000 -647.048064 -242.000000
176.866667 -647.048064 -242.000000
202.133333 -647.048064 -242.000000
227.400000 -647.048064 -242.000000
252.666667 -647.048064 -242.000000
277.933333 -647.048064 -242.000000
303.200000 -647.048064 -242.000000
328.466667 -647.048064 -242.000000
353.733333 -647.048064 -242.000000
379.000000 -647.048064 -242.000000
-379.000000 -617.636788 -242.000000
-353.733333 -617.636788 -242.000000
-328.466667 -617.636788 -242.000000
-303.200000 -617.636788 -242.000000
-277.933333 -617.636788 -242.000000
-252.666667 -617.636788 -242.000000
-227.400000 -617.636788 -242.000000
-202.133333 -617.636788 -242.000000
-176.866667 -617.636788 -242.000000
-151.600000 -617.636788 -242.000000
-126.333333 -617.636788 -242.000000
-101.066667 -617.636788 -242.000000
-75.800000 -617.636788 -242.000000
-50.533333 -617.636788 -242.000000
-25.266667 -617.636788 -242.000000
0.000000 -617.636788 -242.000000
25.266667 -617.636788 -242.000000
50.533333 -617.636788 -242.000000
75.800000 -617.636788 -242.000000
101.066667 -617.636788 -242.000000
126.333333 -617.636788 -242.000000
151.600000 -617.636788 -242.000000
176.866667 -617.636788 -242.000000
202.133333 -617.636788 -242.000000
227.400000 -617.636788 -242.000000
252.666667 -617.636788 -242.000000
277.933333 -617.636788 -242.000000
303.200000 -617.636788 -242.000000
328.466667 -617.636788 -242.000000
353.733333 -617.636788 -242.000000
379.000000 -617.636788 -242.000000
-379.000000 -588.225513 -242.000000
-353.733333 -588.225513 -242.000000
-328.466667 -588.225513 -242.000000
-303.200000 -588.225513 -242.000000
-277.933333 -588.225513 -242.000000
-252.666667 -588.225513 -242.000000
-227.400000 -588.225513 -242.000000
-202.133333 -588.225513 -242.000000
-176.866667 -588.225513 -242.000000
-151.600000 -588.225513 -242.000000
-126.333333 -588.225513 -242.000000
-101.066667 -588.225513 -242.000000
-75.800000 -588.225513 -242.000000
-50.533333 -588.225513 -242.000000
-25.266667 -588.225513 -242.000000
0.000000 -588.225513 -242.000000
25.266667 -588.225513 -242.000000
50.533333 -588.225513 -242.000000
75.800000 -588.225513 -242.000000
101.066667 -588.225513 -242.000000
126.333333 -588.225513 -242.000000
151.600000 -588.225513 -242.000000
176.866667 -588.225513 -242.000000
202.133333 -588.225513 -242.000000
227.400000 -588.225513 -242.000000
252.666667 -588.225513 -242.000000
277.933333 -588.225513 -242.000000
303.200000 -588.225513 -242.000000
328.466667 -588.225513 -242.000000
353.733333 -588.225513 -242.000000
379.000000 -588.225513 -242.000000
-379.000000 -558.814237 -242.000000
-353.733333 -558.814237 -242.000000
-328.466667 -558.814237 -242.000000
-303.200000 -558.814237 -242.000000
-277.933333 -558.814237 -242.000000
-252.666667 -558.814237 -242.000000
-227.400000 -558.814237 -242.000000
-202.133333 -558.814237 -242.000000
-176.866667 -558.814237 -242.000000
-151.600000 -558.814237 -242.000000
-126.333333 -558.814237 -242.000000
-101.066667 -558.814237 -242.000000
-75.800000 -558.814237 -242.000000
-50.533333 -558.814237 -242.000000
-25.266667 -558.814237 -242.000000
0.000000 -558.814237 -242.000000
25.266667 -558.814237 -242.000000
50.533333 -558.814237 -242.000000
75.800000 -558.814237 -242.000000
101.066667 -558.814237 -242.000000
126.333333 -558.814237 -242.000000
151.600000 -558.814237 -242.000000
176.866667 -558.814237 -242.000000
202.133333 -558.814237 -242.000000
227.400000 -558.814237 -242.000000
252.666667 -558.814237 -242.000000
277.933333 -558.814237 -242.000000
303.200000 -558.814237 -242.000000
328.466667 -558.814237 -242.000000
353.733333 -558.814237 -242.000000
379.000000 -558.814237 -242.000000
-379.000000 -529.402961 -242.000000
-353.733333 -529.402961 -242.000000
-328.466667 -529.402961 -242.000000
-303.200000 -529.402961 -242.000000
-277.933333 -529.402961 -242.000000
-252.666667 -529.402961 -242.000000
-227.400000 -529.402961 -242.000000
-202.133333 -529.402961 -242.000000
-176.866667 -529.402961 -242.000000
-151.600000 -529.402961 -242.000000
-126.333333 -529.402961 -242.000000
-101.066667 -529.402961 -242.000000
-75.800000 -529.402961 -242.000000
-50.533333 -529.402961 -242.000000
-25.266667 -529.402961 -242.000000
0.000000 -529.402961 -242.000000
25.266667 -529.402961 -242.000000
50.533333 -529.402961 -242.000000
75.800000 -529.402961 -242.000000
101.066667 -529.402961 -242.000000
126.333333 -529.402961 -242.000000
151.600000 -529.402961 -242.000000
176.866667 -529.402961 -242.000000
202.133333 -529.402961 -242.000000
227.400000 -529.402961 -242.000000
252.666667 -529.402961 -242.000000
277.933333 -529.402961 -242.000000
303.200000 -529.402961 -242.000000
328.466667 -529.402961 -242.000000
353.733333 -529.402961 -242.000000
379.000000 -529.402961 -242.000000
-379.000000 -499.991686 -242.000000
-353.733333 -499.991686 -242.000000
-328.466667 -499.991686 -242.000000
-303.200000 -499.991686 -242.000000
-277.933333 -499.991686 -242.000000
-252.666667 -499.991686 -242.000000
-227.400000 -499.991686 -242.000000
-202.133333 -499.991686 -242.000000
-176.866667 -499.991686 -242.000000
-151.600000 -499.991686 -242.000000
-126.333333 -499.991686 -242.000000
-101.066667 -499.991686 -242.000000
-75.800000 -499.991686 -242.000000
-50.533333 -499.991686 -242.000000
-25.266667 -499.991686 -242.000000
0.000000 -499.991686 -242.000000
25.266667 -499.991686 -242.000000
50.533333 -499.991686 -242.000000
75.800000 -499.991686 -242.000000
101.066667 -499.991686 -242.000000
126.333333 -499.991686 -242.000000
151.600000 -499.991686 -242.000000
176.866667 -499.991686 -242.000000
202.133333 -499.991686 -242.000000
227.400000 -499.991686 -242.000000
252.666667 -499.991686 -242.000000
277.933333 -499.991686 -242.000000
303.200000 -499.991686 -242.000000
328.466667 -499.991686 -242.000000
353.733333 -499.991686 -242.000000
379.000000 -499.991686 -242.000000
-379.000000 -470.580410 -242.000000
[...]
POINT_DATA 49011
VECTORS B float
-0.089676 0.078340 0.076120
-0.095787 0.075114 0.072885
-0.101666 0.071463 0.069271
-0.107259 0.067410 0.065297
-0.112514 0.062982 0.060985
-0.117387 0.058213 0.056363
-0.121844 0.053140 0.051461
-0.125855 0.047804 0.046311
-0.129402 0.042245 0.040948
-0.132472 0.036502 0.035404
-0.135062 0.030612 0.029712
-0.137171 0.024610 0.023902
-0.138802 0.018524 0.018002
-0.139962 0.012379 0.012036
-0.140656 0.006198 0.006028
-0.140887 0.000000 0.000000
-0.140656 -0.006198 -0.006028
-0.139962 -0.012379 -0.012036
-0.138802 -0.018524 -0.018002
-0.137171 -0.024610 -0.023902
-0.135062 -0.030612 -0.029712
-0.132472 -0.036502 -0.035404
-0.129402 -0.042245 -0.040948
-0.125855 -0.047804 -0.046311
-0.121844 -0.053140 -0.051461
-0.117387 -0.058213 -0.056363
-0.112514 -0.062982 -0.060985
-0.107259 -0.067410 -0.065297
-0.101666 -0.071463 -0.069271
-0.095787 -0.075114 -0.072885
-0.089676 -0.078340 -0.076120
-0.093243 0.082574 0.082430
-0.099884 0.079212 0.078963
-0.106270 0.075382 0.075070
-0.112338 0.071108 0.070772
-0.118030 0.066423 0.066097
-0.123294 0.061368 0.061076
-0.128092 0.055987 0.055746
-0.132393 0.050327 0.050146
-0.136179 0.044436 0.044317
-0.139441 0.038361 0.038296
-0.142178 0.032142 0.032122
-0.144396 0.025818 0.025827
-0.146104 0.019420 0.019443
-0.147315 0.012971 0.012995
-0.148037 0.006492 0.006507
-0.148276 0.000000 0.000000
-0.148037 -0.006492 -0.006507
-0.147315 -0.012971 -0.012995
-0.146104 -0.019420 -0.019443
-0.144396 -0.025818 -0.025827
-0.142178 -0.032142 -0.032122
-0.139441 -0.038361 -0.038296
-0.136179 -0.044436 -0.044317
-0.132393 -0.050327 -0.050146
-0.128092 -0.055987 -0.055746
-0.123294 -0.061368 -0.061076
-0.118030 -0.066423 -0.066097
-0.112338 -0.071108 -0.070772
-0.106270 -0.075382 -0.075070
-0.099884 -0.079212 -0.078963
-0.093243 -0.082574 -0.082430
-0.096942 0.087021 0.089320
-0.104170 0.083518 0.085603
-0.111118 0.079495 0.081403
-0.117710 0.074980 0.076746
-0.123878 0.070014 0.071665
-0.129565 0.064644 0.066199
-0.134726 0.058924 0.060393
-0.139329 0.052911 0.054293
-0.143357 0.046663 0.047948
-0.146805 0.040234 0.041403
-0.149680 0.033671 0.034702
-0.151994 0.027016 0.027882
-0.153766 0.020300 0.020978
-0.155015 0.013549 0.014014
-0.155757 0.006779 0.007016
-0.156004 0.000000 0.000000
-0.155757 -0.006779 -0.007016
-0.155015 -0.013549 -0.014014
-0.153766 -0.020300 -0.020978
-0.151994 -0.027016 -0.027882
-0.149680 -0.033671 -0.034702
-0.146805 -0.040234 -0.041403
-0.143357 -0.046663 -0.047948
-0.139329 -0.052911 -0.054293
-0.134726 -0.058924 -0.060393
-0.129565 -0.064644 -0.066199
-0.123878 -0.070014 -0.071665
-0.117710 -0.074980 -0.076746
-0.111118 -0.079495 -0.081403
-0.104170 -0.083518 -0.085603
-0.096942 -0.087021 -0.089320
-0.100776 0.091690 0.096857
-0.108658 0.088039 0.092866
-0.116230 0.083806 0.088327
-0.123402 0.079027 0.083270
-0.130094 0.073749 0.077735
-0.136238 0.068031 0.071770
-0.141784 0.061937 0.065429
-0.146699 0.055538 0.058770
-0.150967 0.048902 0.051851
-0.154590 0.042094 0.044728
-0.157583 0.035170 0.037451
-0.159972 0.028175 0.030063
-0.161786 0.021144 0.022600
-0.163056 0.014098 0.015089
-0.163806 0.007049 0.007551
-0.164054 0.000000 0.000000
-0.163806 -0.007049 -0.007551
-0.163056 -0.014098 -0.015089
-0.161786 -0.021144 -0.022600
-0.159972 -0.028175 -0.030063
-0.157583 -0.035170 -0.037451
-0.154590 -0.042094 -0.044728
-0.150967 -0.048902 -0.051851
-0.146699 -0.055538 -0.058770
-0.141784 -0.061937 -0.065429
-0.136238 -0.068031 -0.071770
-0.130094 -0.073749 -0.077735
-0.123402 -0.079027 -0.083270
-0.116230 -0.083806 -0.088327
-0.108658 -0.088039 -0.092866
-0.100776 -0.091690 -0.096857
-0.104749 0.096589 0.105112
-0.113363 0.092781 0.100823
-0.121632 0.088322 0.095909
-0.129450 0.083251 0.090403
-0.136718 0.077625 0.084356
-0.143358 0.071517 0.077826
-0.149312 0.065006 0.070881
-0.154544 0.058178 0.063593
-0.159043 0.051118 0.056033
-0.162819 0.043904 0.048269
-0.165901 0.036601 0.040361
-0.168331 0.029262 0.032358
-0.170154 0.021921 0.024299
-0.171418 0.014596 0.016210
-0.172159 0.007292 0.008108
-0.172403 0.000000 0.000000
-0.172159 -0.007292 -0.008108
-0.171418 -0.014596 -0.016210
-0.170154 -0.021921 -0.024299
-0.168331 -0.029262 -0.032358
-0.165901 -0.036601 -0.040361
-0.162819 -0.043904 -0.048269
-0.159043 -0.051118 -0.056033
-0.154544 -0.058178 -0.063593
-0.149312 -0.065006 -0.070881
-0.143358 -0.071517 -0.077826
-0.136718 -0.077625 -0.084356
-0.129450 -0.083251 -0.090403
-0.121632 -0.088322 -0.095909
-0.113363 -0.092781 -0.100823
-0.104749 -0.096589 -0.105112
-0.108861 0.101726 0.114173
-0.118300 0.097755 0.109559
-0.127354 0.093047 0.104225
-0.135893 0.087651 0.098213
-0.143801 0.081634 0.091583
-0.150981 0.075085 0.084409
-0.157365 0.068103 0.076777
-0.162916 0.060796 0.068775
-0.167627 0.053267 0.060494
-0.171522 0.045614 0.052017
-0.174647 0.037915 0.043416
-0.177068 0.030229 0.034749
-0.178853 0.022591 0.026057
-0.180071 0.015015 0.017364
-0.180777 0.007492 0.008678
-0.181008 0.000000 0.000000
-0.180777 -0.007492 -0.008678
-0.180071 -0.015015 -0.017364
-0.178853 -0.022591 -0.026057
-0.177068 -0.030229 -0.034749
-0.174647 -0.037915 -0.043416
-0.171522 -0.045614 -0.052017
-0.167627 -0.053267 -0.060494
-0.162916 -0.060796 -0.068775
-0.157365 -0.068103 -0.076777
-0.150981 -0.075085 -0.084409
-0.143801 -0.081634 -0.091583
-0.135893 -0.087651 -0.098213
-0.127354 -0.093047 -0.104225
-0.118300 -0.097755 -0.109559
-0.108861 -0.101726 -0.114173
-0.113112 0.107108 0.124141
-0.123485 0.102967 0.119171
-0.133429 0.097988 0.113367
-0.142784 0.092226 0.106779
-0.151405 0.085765 0.099481
-0.159175 0.078712 0.091566
-0.166012 0.071193 0.083142
-0.171876 0.063343 0.074324
-0.176768 0.055292 0.065224
-0.180729 0.047161 0.055949
-0.183832 0.039046 0.046586
-0.186172 0.031015 0.037203
-0.187851 0.023104 0.027843
-0.188968 0.015318 0.018526
-0.189603 0.007631 0.009251
-0.189809 0.000000 0.000000
-0.189603 -0.007631 -0.009251
-0.188968 -0.015318 -0.018526
-0.187851 -0.023104 -0.027843
-0.186172 -0.031015 -0.037203
-0.183832 -0.039046 -0.046586
-0.180729 -0.047161 -0.055949
-0.176768 -0.055292 -0.065224
-0.171876 -0.063343 -0.074324
-0.166012 -0.071193 -0.083142
-0.159175 -0.078712 -0.091566
-0.151405 -0.085765 -0.099481
-0.142784 -0.092226 -0.106779
-0.133429 -0.097988 -0.113367
-0.123485 -0.102967 -0.119171
-0.113112 -0.107108 -0.124141
-0.117498 0.112739 0.135133
-0.128937 0.108425 0.129774
-0.139898 0.103149 0.123442
-0.150181 0.096975 0.116194
-0.159606 0.090004 0.108123
-0.168025 0.082370 0.099347
-0.175340 0.074232 0.090003
-0.181503 0.065759 0.080239
-0.186528 0.057119 0.070203
-0.190479 0.048462 0.060027
-0.193465 0.039910 0.049822
-0.195623 0.031541 0.039668
-0.197102 0.023393 0.029612
-0.198041 0.015455 0.019663
-0.198554 0.007683 0.009806
-0.198717 0.000000 0.000000
-0.198554 -0.007683 -0.009806
-0.198041 -0.015455 -0.019663
-0.197102 -0.023393 -0.029612
-0.195623 -0.031541 -0.039668
-0.193465 -0.039910 -0.049822
-0.190479 -0.048462 -0.060027
-0.186528 -0.057119 -0.070203
-0.181503 -0.065759 -0.080239
-0.175340 -0.074232 -0.090003
-0.168025 -0.082370 -0.099347
-0.159606 -0.090004 -0.108123
-0.150181 -0.096975 -0.116194
-0.139898 -0.103149 -0.123442
-0.128937 -0.108425 -0.129774
-0.117498 -0.112739 -0.135133
-0.122006 0.118622 0.147289
-0.134670 0.114135 0.141508
-0.146805 0.108536 0.134579
-0.158157 0.101896 0.126571
-0.168497 0.094338 0.117597
-0.177639 0.086027 0.107808
-0.185456 0.077164 0.097382
-0.191896 0.067968 0.086512
-0.196983 0.058654 0.075390
-0.200816 0.049415 0.064189
-0.203553 0.040401 0.053050
-0.205390 0.031709 0.042069
-0.206538 0.023373 0.031294
-0.207193 0.015368 0.020724
-0.207516 0.007616 0.010317
-0.207612 0.000000 0.000000
-0.207516 -0.007616 -0.010317
-0.207193 -0.015368 -0.020724
-0.206538 -0.023373 -0.031294
-0.205390 -0.031709 -0.042069
-0.203553 -0.040401 -0.053050
-0.200816 -0.049415 -0.064189
-0.196983 -0.058654 -0.075390
-0.191896 -0.067968 -0.086512
-0.185456 -0.077164 -0.097382
-0.177639 -0.086027 -0.107808
-0.168497 -0.094338 -0.117597
-0.158157 -0.101896 -0.126571
-0.146805 -0.108536 -0.134579
-0.134670 -0.114135 -0.141508
-0.122006 -0.118622 -0.147289
-0.126615 0.124751 0.160775
-0.140698 0.120100 0.154539
-0.154199 0.114152 0.146936
-0.166796 0.106986 0.138045
-0.178193 0.098746 0.128007
-0.188148 0.089640 0.117014
-0.196497 0.079923 0.105298
-0.203176 0.069878 0.093117
-0.208228 0.059784 0.080722
-0.211795 0.049889 0.068343
-0.214102 0.040386 0.056160
-0.215428 0.031392 0.044294
-0.216066 0.022939 0.032792
-0.216294 0.014978 0.021635
-0.216333 0.007390 0.010745
-0.216330 0.000000 0.000000
-0.216333 -0.007390 -0.010745
-0.216294 -0.014978 -0.021635
-0.216066 -0.022939 -0.032792
-0.215428 -0.031392 -0.044294
-0.214102 -0.040386 -0.056160
-0.211795 -0.049889 -0.068343
-0.208228 -0.059784 -0.080722
-0.203176 -0.069878 -0.093117
-0.196497 -0.079923 -0.105298
-0.188148 -0.089640 -0.117014
-0.178193 -0.098746 -0.128007
-0.166796 -0.106986 -0.138045
-0.154199 -0.114152 -0.146936
-0.140698 -0.120100 -0.154539
-0.126615 -0.124751 -0.160775
-0.131287 0.131107 0.175786
-0.147024 0.126314 0.169068
-0.162130 0.119998 0.160704
-0.176194 0.112239 0.150784
-0.188830 0.103208 0.139479
-0.199716 0.093163 0.127038
-0.208634 0.082431 0.113767
-0.215502 0.071377 0.100008
-0.220383 0.060368 0.086101
-0.223482 0.049727 0.072350
-0.225114 0.039703 0.058995
-0.225671 0.030438 0.046184
-0.225562 0.021963 0.033966
-0.225169 0.014195 0.022294
-0.224800 0.006956 0.011035
-0.224654 0.000000 0.000000
-0.224800 -0.006956 -0.011035
-0.225169 -0.014195 -0.022294
-0.225562 -0.021963 -0.033966
-0.225671 -0.030438 -0.046184
-0.225114 -0.039703 -0.058995
-0.223482 -0.049727 -0.072350
-0.220383 -0.060368 -0.086101
-0.215502 -0.071377 -0.100008
-0.208634 -0.082431 -0.113767
-0.199716 -0.093163 -0.127038
-0.188830 -0.103208 -0.139479
-0.176194 -0.112239 -0.150784
-0.162130 -0.119998 -0.160704
-0.147024 -0.126314 -0.169068
-0.131287 -0.131107 -0.175786
-0.135964 0.137652 0.192553
-0.153636 0.132759 0.185336
-0.170646 0.126065 0.176118
-0.186462 0.117645 0.164994
-0.200572 0.107697 0.152171
-0.212543 0.096540 0.137970
-0.222080 0.084594 0.122798
-0.229068 0.072334 0.107114
-0.233599 0.060241 0.091383
-0.235957 0.048743 0.076017
-0.236588 0.038159 0.061333
-0.236033 0.028669 0.047521
-0.234860 0.020296 0.034626
-0.233593 0.012910 0.022559
-0.232653 0.006260 0.011113
-0.232308 0.000000 0.000000
-0.232653 -0.006260 -0.011113
-0.233593 -0.012910 -0.022559
-0.234860 -0.020296 -0.034626
-0.236033 -0.028669 -0.047521
-0.236588 -0.038159 -0.061333
-0.235957 -0.048743 -0.076017
-0.233599 -0.060241 -0.091383
-0.229068 -0.072334 -0.107114
-0.222080 -0.084594 -0.122798
-0.212543 -0.096540 -0.137970
-0.200572 -0.107697 -0.152171
-0.186462 -0.117645 -0.164994
-0.170646 -0.126065 -0.176118
-0.153636 -0.132759 -0.185336
-0.135964 -0.137652 -0.192553
-0.140552 0.144307 0.211343
-0.160501 0.139386 0.203633
-0.179785 0.132325 0.193467
-0.197716 0.123182 0.180934
-0.213609 0.112180 0.166281
-0.226874 0.099710 0.149918
-0.237098 0.086307 0.132393
-0.244119 0.072597 0.114331
-0.248061 0.059214 0.096368
-0.249320 0.046722 0.079072
-0.248517 0.035537 0.062870
-0.246400 0.025883 0.048003
-0.243751 0.017768 0.034511
-0.241282 0.011005 0.022240
-0.239560 0.005238 0.010878
-0.238944 0.000000 0.000000
-0.239560 -0.005238 -0.010878
-0.241282 -0.011005 -0.022240
-0.243751 -0.017768 -0.034511
-0.246400 -0.025883 -0.048003
-0.248517 -0.035537 -0.062870
-0.249320 -0.046722 -0.079072
-0.248061 -0.059214 -0.096368
-0.244119 -0.072597 -0.114331
-0.237098 -0.086307 -0.132393
-0.226874 -0.099710 -0.149918
-0.213609 -0.112180 -0.166281
-0.197716 -0.123182 -0.180934
-0.179785 -0.132325 -0.193467
-0.160501 -0.139386 -0.203633
-0.140552 -0.144307 -0.211343
-0.144919 0.150938 0.232457
-0.167545 0.146100 0.224300
-0.189560 0.138717 0.213103
-0.210069 0.128806 0.198925
-0.228152 0.116607 0.182055
-0.242992 0.102595 0.163019
-0.254006 0.087454 0.142549
-0.260952 0.072002 0.121508
-0.263995 0.057080 0.100779
-0.263685 0.043434 0.081148
-0.260884 0.031606 0.063195
-0.256625 0.021869 0.047232
-0.251973 0.014212 0.033279
-0.247887 0.008360 0.021090
-0.245119 0.003832 0.010201
-0.244142 0.000000 0.000000
-0.245119 -0.003832 -0.010201
-0.247887 -0.008360 -0.021090
-0.251973 -0.014212 -0.033279
-0.256625 -0.021869 -0.047232
-0.260884 -0.031606 -0.063195
-0.263685 -0.043434 -0.081148
-0.263995 -0.057080 -0.100779
-0.260952 -0.072002 -0.121508
-0.254006 -0.087454 -0.142549
-0.242992 -0.102595 -0.163019
-0.228152 -0.116607 -0.182055
-0.210069 -0.128806 -0.198925
-0.189560 -0.138717 -0.213103
-0.167545 -0.146100 -0.224300
-0.144919 -0.150938 -0.232457
-0.148876 0.157314 0.256216
-0.174643 0.152723 0.247724
-0.199945 0.145112 0.235441
-0.223618 0.134425 0.219364
-0.244423 0.120899 0.199808
-0.261221 0.105102 0.177442
-0.273172 0.087903 0.153255
-0.279916 0.070374 0.128444
-0.281663 0.053631 0.104247
-0.279178 0.038655 0.081760
-0.273655 0.026147 0.061776
-0.266519 0.016439 0.044695
-0.259208 0.009480 0.030497
-0.252998 0.004880 0.018797
-0.248865 0.001992 0.008920
-0.247418 0.000000 0.000000
-0.248865 -0.001992 -0.008920
-0.252998 -0.004880 -0.018797
-0.259208 -0.009480 -0.030497
-0.266519 -0.016439 -0.044695
-0.273655 -0.026147 -0.061776
-0.279178 -0.038655 -0.081760
-0.281663 -0.053631 -0.104247
-0.279916 -0.070374 -0.128444
-0.273172 -0.087903 -0.153255
-0.261221 -0.105102 -0.177442
-0.244423 -0.120899 -0.199808
-0.223618 -0.134425 -0.219364
-0.199945 -0.145112 -0.235441
-0.174643 -0.152723 -0.247724
-0.148876 -0.157314 -0.256216
-0.152177 0.163068 0.282936
-0.181601 0.158948 0.274316
-0.210847 0.151270 0.260955
-0.238415 0.139858 0.242718
-0.262633 0.124916 0.219920
-0.281901 0.107102 0.193401
-0.295007 0.087515 0.164496
-0.301400 0.067552 0.134877
-0.301349 0.048686 0.106296
-0.295919 0.032207 0.080290
-0.286768 0.019009 0.057945
-0.275848 0.009481 0.039761
-0.265090 0.003502 0.025643
-0.256156 0.000527 0.014993
-0.250290 -0.000296 0.006844
-0.248250 0.000000 0.000000
-0.250290 0.000296 -0.006844
-0.256156 -0.000527 -0.014993
-0.265090 -0.003502 -0.025643
-0.275848 -0.009481 -0.039761
-0.286768 -0.019009 -0.057945
-0.295919 -0.032207 -0.080290
-0.301349 -0.048686 -0.106296
-0.301400 -0.067552 -0.134877
-0.295007 -0.087515 -0.164496
-0.281901 -0.107102 -0.193401
-0.262633 -0.124916 -0.219920
-0.238415 -0.139858 -0.242718
-0.210847 -0.151270 -0.260955
-0.181601 -0.158948 -0.274316
-0.152177 -0.163068 -0.282936
-0.154519 0.167640 0.312864
-0.188142 0.164272 0.304464
-0.222083 0.156772 0.290135
-0.254433 0.144778 0.269507
-0.282936 0.128409 0.242833
-0.305352 0.108407 0.211144
-0.319916 0.086137 0.176246
-0.325794 0.063407 0.140483
-0.323326 0.042147 0.106344
-0.313995 0.024032 0.075996
-0.300108 0.010186 0.050917
-0.284328 0.001037 0.031710
-0.269215 -0.003650 0.018135
-0.256893 -0.004628 0.009278
-0.248896 -0.002988 0.003774
-0.246131 0.000000 0.000000
-0.248896 0.002988 -0.003774
-0.256893 0.004628 -0.009278
-0.269215 0.003650 -0.018135
-0.284328 -0.001037 -0.031710
-0.300108 -0.010186 -0.050917
-0.313995 -0.024032 -0.075996
-0.323326 -0.042147 -0.106344
-0.325794 -0.063407 -0.140483
-0.319916 -0.086137 -0.176246
-0.305352 -0.108407 -0.211144
-0.282936 -0.128409 -0.242833
-0.254433 -0.144778 -0.269507
-0.222083 -0.156772 -0.290135
-0.188142 -0.164272 -0.304464
-0.154519 -0.167640 -0.312864
-0.155569 0.170222 0.346086
-0.193911 0.167919 0.338428
-0.233356 0.160925 0.323398
-0.271511 0.148614 0.300230
-0.305368 0.130948 0.269000
-0.331791 0.108721 0.230937
-0.348227 0.083597 0.188466
-0.353414 0.057883 0.144886
-0.347785 0.034069 0.103733
-0.333407 0.014294 0.068059
-0.313486 -0.000069 0.039855
-0.291633 -0.008586 0.019810
-0.271188 -0.011669 0.007413
-0.254798 -0.010336 0.001285
-0.244279 -0.005945 -0.000473
-0.240663 0.000000 0.000000
-0.244279 0.005945 0.000473
-0.254798 0.010336 -0.001285
-0.271188 0.011669 -0.007413
-0.291633 0.008586 -0.019810
-0.313486 0.000069 -0.039855
-0.333407 -0.014294 -0.068059
-0.347785 -0.034069 -0.103733
-0.353414 -0.057883 -0.144886
-0.348227 -0.083597 -0.188466
-0.331791 -0.108721 -0.230937
-0.305368 -0.130948 -0.269000
-0.271511 -0.148614 -0.300230
-0.233356 -0.160925 -0.323398
-0.193911 -0.167919 -0.338428
-0.155569 -0.170222 -0.346086
-0.155019 0.169729 0.382377
-0.198506 0.168782 0.376176
-0.244245 0.162678 0.360918
-0.289313 0.150451 0.335210
-0.329751 0.131821 0.298766
-0.361215 0.107578 0.252980
-0.380045 0.079698 0.201087
-0.384366 0.051049 0.147696
-0.374725 0.024766 0.097816
-0.353998 0.003508 0.055715
-0.326614 -0.011105 0.024036
-0.297419 -0.018691 0.003481
-0.270691 -0.019917 -0.006920
-0.249619 -0.016114 -0.009219
-0.236254 -0.008907 -0.005996
-0.231686 0.000000 0.000000
-0.236254 0.008907 0.005996
-0.249619 0.016114 0.009219
-0.270691 0.019917 0.006920
-0.297419 0.018691 -0.003481
-0.326614 0.011105 -0.024036
-0.353998 -0.003508 -0.055715
-0.374725 -0.024766 -0.097816
-0.384366 -0.051049 -0.147696
-0.380045 -0.079698 -0.201087
-0.361215 -0.107578 -0.252980
-0.329751 -0.131821 -0.298766
-0.289313 -0.150451 -0.335210
-0.244245 -0.162678 -0.360918
-0.198506 -0.168782 -0.376176
-0.155019 -0.169729 -0.382377
-0.152684 0.164838 0.421019
-0.201555 0.165420 0.417150
-0.254239 0.160575 0.402356
-0.307283 0.148953 0.374326
-0.355583 0.129953 0.332140
-0.393221 0.104287 0.277270
-0.415044 0.074208 0.213964
-0.418338 0.043151 0.148589
-0.403792 0.014910 0.088144
-0.375366 -0.007336 0.038510
-0.339096 -0.021764 0.003122
-0.301388 -0.028117 -0.017440
-0.267592 -0.027384 -0.024879
-0.241405 -0.021221 -0.022176
-0.224995 -0.011486 -0.012747
-0.219423 0.000000 0.000000
-0.224995 0.011486 0.012747
-0.241405 0.021221 0.022176
-0.267592 0.027384 0.024879
-0.301388 0.028117 0.017440
-0.339096 0.021764 -0.003122
-0.375366 0.007336 -0.038510
-0.403792 -0.014910 -0.088144
-0.418338 -0.043151 -0.148589
-0.415044 -0.074208 -0.213964
-0.393221 -0.104287 -0.277270
-0.355583 -0.129953 -0.332140
-0.307283 -0.148953 -0.374326
-0.254239 -0.160575 -0.402356
-0.201555 -0.165420 -0.417150
-0.152684 -0.164838 -0.421019
-0.148624 0.154148 0.460629
-0.202841 0.156196 0.459999
-0.262826 0.152850 0.446520
-0.324656 0.142409 0.416635
-0.381936 0.123912 0.368444
-0.426805 0.097920 0.303353
-0.452208 0.066864 0.226819
-0.454353 0.034635 0.147438
-0.434104 0.005566 0.074752
-0.396785 -0.016754 0.016681
-0.350456 -0.030391 -0.022441
-0.303389 -0.035284 -0.042356
-0.262085 -0.032751 -0.045844
-0.230639 -0.024729 -0.037083
-0.211180 -0.013205 -0.020445
-0.204615 0.000000 0.000000
-0.211180 0.013205 0.020445
-0.230639 0.024729 0.037083
-0.262085 0.032751 0.045844
-0.303389 0.035284 0.042356
-0.350456 0.030391 0.022441
-0.396785 0.016754 -0.016681
-0.434104 -0.005566 -0.074752
-0.454353 -0.034635 -0.147438
-0.452208 -0.066864 -0.226819
-0.426805 -0.097920 -0.303353
-0.381936 -0.123912 -0.368444
-0.324656 -0.142409 -0.416635
-0.262826 -0.152850 -0.446520
-0.202841 -0.156196 -0.459999
-0.148624 -0.154148 -0.460629
-0.143254 0.136476 0.499072
-0.202439 0.139602 0.502403
-0.269617 0.137750 0.491063
-0.340523 0.129005 0.459980
-0.407411 0.112117 0.405926
-0.460195 0.087442 0.330051
-0.489587 0.057417 0.239160
-0.490534 0.026107 0.144467
-0.464096 -0.001932 0.058506
-0.417185 -0.022965 -0.008423
-0.360213 -0.035089 -0.051022
-0.303544 -0.038461 -0.069608
-0.254809 -0.034646 -0.068367
-0.218336 -0.025705 -0.052886
-0.196041 -0.013597 -0.028539
-0.188566 0.000000 0.000000
-0.196041 0.013597 0.028539
-0.218336 0.025705 0.052886
-0.254809 0.034646 0.068367
-0.303544 0.038461 0.069608
-0.360213 0.035089 0.051022
-0.417185 0.022965 0.008423
-0.464096 0.001932 -0.058506
-0.490534 -0.026107 -0.144467
-0.489587 -0.057417 -0.239160
-0.460195 -0.087442 -0.330051
-0.407411 -0.112117 -0.405926
-0.340523 -0.129005 -0.459980
-0.269617 -0.137750 -0.491063
-0.202439 -0.139602 -0.502403
-0.143254 -0.136476 -0.499072
-0.137368 0.111256 0.533578
-0.200802 0.114757 0.541125
-0.274480 0.114096 0.532447
-0.353954 0.107401 0.500851
-0.430205 0.093328 0.441560
-0.490852 0.072040 0.355300
-0.524259 0.045731 0.250245