# vtk DataFile Version 2.0
Generated by ksugahar
ASCII
DATASET STRUCTURED_POINTS
DIMENSIONS 31 31 31
ORIGIN -500.0 -500.0 -500.0
SPACING 33.333333333333314 33.333333333333314 33.333333333333314
POINT_DATA 29791
SCALARS B_magnitude float
LOOKUP_TABLE default
0.00018093163668218005
0.0001820636481381798
0.00018287998541836997
0.0001833669479369138
0.00018351977754929637
0.00018334534458868678
0.00018286458304554343
0.00018211432262076207
0.00018114838079785335
0.00018003690739358237
0.00017886398770426926
0.00017772279043438508
0.00017670857556208825
0.00017590984467883875
0.00017539885211805196
0.00017522301614763465
0.00017539885682133987
0.00017590984220077011
0.00017670857556208825
0.0001777227852641306
0.00017886398000796673
0.00018003690739358237
0.00018114838310320742
0.00018211433261251878
0.00018286458304554343
0.00018334534633658432
0.0001835197776671003
0.00018336694869472778
0.00018287998459627598
0.0001820636393805413
0.00018093163668218005
0.00018433421618273464
0.00018548189544795277
0.00018628362052735298
0.00018672011961518112
0.00018678204855145686
0.00018647306418580014
0.00018581317379832442
0.00018484150006712377
0.00018361808347387503
0.00018222388379017821
0.00018075830863299204
0.0001793338718520002
0.0001780674858320246
0.0001770693000432556
0.00017643014208747616
0.00017621008207963104
0.00017643014206444467
0.00017706929514523298
0.0001780674858320246
0.00017933387156451693
0.00018075830564611946
0.00018222388379017821
0.0001836180977612972
0.00018484149873864203
0.00018581317379832442
0.00018647305822853908
0.00018678204624898452
0.00018672011917771867
0.00018628361450904866
0.00018548190095249572
0.00018433421618273464
0.00018763179825656705
0.00018879597734698715
0.0001895815513683914
0.00018996277590229126
0.0001899242437919103
0.00018946504479100515
0.00018860304935414647
0.0001873789050532107
0.00018585881165842752
0.00018413551082420315
0.0001823260704421466
0.00018056590339770388
0.00017899838035016977
0.00017776052951009626
0.00017696673445507074
0.00017669321148347527
0.00017696673394886007
0.0001777605255525681
0.00017899838035016977
0.00018056590910343385
0.00018232607010875118
0.00018413551082420315
0.00018585881162730536
0.0001873788931427526
0.00018860304935414647
0.0001894650458713844
0.00018992424385108023
0.00018996277744350872
0.00018958155797287306
0.00018879598559398797
0.00018763179825656705
0.00019081462821252327
0.0001919976119048312
0.0001927675973291955
0.00019309091751942476
0.00019294462134408576
0.0001923215802289852
0.00019123602251032678
0.00018972893037790567
0.00018787228737666495
0.0001857713268285275
0.00018356299319252718
0.00018140956323843806
0.00017948623088901184
0.00017796327012509412
0.0001769846048265982
0.00017664700357481947
0.00017698460526298287
0.0001779632684224846
0.00017948623088901184
0.00018140955821480822
0.0001835629934138602
0.0001857713268285275
0.0001878722874959016
0.00018972892980916888
0.00019123602251032678
0.00019232158109383922
0.0001929446270061792
0.00019309091690569043
0.0001927675964389409
0.00019199761501897678
0.00019081462821252327
0.00019387267509587896
0.00019507851428071286
0.00019583564257160093
0.0001961011348946163
0.0001958428061065983
0.00019504546666636086
0.00019371788131481376
0.0001918997629865541
0.00018966802599488207
0.00018714070716533622
0.00018447663412244193
0.0001818689327689515
0.00017953065443208915
0.00017767259082642338
0.0001764754390735773
0.00017606189094138234
0.00017647544113414654
0.00017767258964199227
0.00017953065443208915
0.00018186893036825166
0.00018447663394024227
0.00018714070716533622
0.00018966802675012714
0.00019189976108528604
0.00019371788131481376
0.0001950454672071853
0.00019584280547742903
0.0001961011410097722
0.0001958356399972981
0.00019507850590056323
0.00019387267509587896
0.0001967946588589454
0.00019802900175348889
0.00019877830472371096
0.00019898901822253118
0.0001986180684090394
0.0001976402617531137
0.0001960567610110345
0.00019390407540857284
0.00019126266318778506
0.0001882630795333086
0.0001850875507005574
0.00018196387299148237
0.0001791492863325677
0.0001769031980227067
0.0001754514711668831
0.00017494913026083495
0.00017545147149503935
0.00017690319650674304
0.0001791492863325677
0.0001819638732906173
0.00018508755025445733
0.0001882630795333086
0.00019126266398282403
0.00019390408672130394
0.0001960567610110345
0.0001976402626797751
0.00019861806795700923
0.000198989017696427
0.00019877830396936155
0.0001980289929017364
0.0001967946588589454
0.0001995668047710699
0.00020083650799525033
0.00020158501321963532
0.00020174698918788895
0.00020126694600991024
0.00020010771466924773
0.0001982606110355454
0.00019575670969629118
0.00019267806458079652
0.000189166819303116
0.00018542933804645273
0.0001817313885936361
0.00017838047681968628
0.00017569326048071473
0.00017395009580659015
0.00017334573478063867
0.00017395009590747828
0.00017569326571324537
0.00017838047681968628
0.0001817313812853796
0.0001854293372489643
0.000189166819303116
0.00019267806942745052
0.0001957567090704239
0.0001982606110355454
0.00020010771519145555
0.00020126694018561463
0.00020174698957542062
0.00020158501208821045
0.00020083651331371182
0.0001995668047710699
0.00020217156996355537
0.00020348397547888378
0.00020424009938739196
0.00020436199970427405
0.00020378046891793454
0.0002024446277996284
0.00020033381070036805
0.00019747123295324736
0.0001939381781615356
0.00018988673724026876
0.00018554716325505974
0.00018122538796930406
0.00017728462675949485
0.00017410709641459035
0.00017203751020806202
0.00017131835273740778
0.0001720375100513099
0.00017410710158058181
0.00017728462675949485
0.00018122539564708863
0.00018554715811172488
0.00018988673724026876
0.00019393817808970019
0.00019747122066315047
0.00020033381070036805
0.00020244462864018505
0.0002037804689904795
0.00020436199487277945
0.000204240098150106
0.00020348398377412506
0.00020217156996355537
0.00020458654650357876
0.00020594850279319213
0.00020672111202756422
0.00020681341037266166
0.00020614162836297967
0.00020463985829914636
0.0002022736261065214
0.0001990559985420495
0.00019506497314332504
0.00019046016328820852
0.0001854944346916791
0.0001805145737895604
0.00017594331932143498
0.0001722358456285752
0.00016981046340588132
0.000168965749556692
0.00016981046420515536
0.00017223584696706952
0.00017594331932143498
0.00018051457866833563
0.00018549443754611297
0.00019046016328820852
0.00019506497915199852
0.00019905599817101612
0.0002022736261065214
0.00020463985896565796
0.00020614163386787693
0.00020681341004568277
0.00020672111157929595
0.00020594850228899156
0.00020458654650357876
0.00020678403396662712
0.00020820068962962144
0.00020899790884923788
0.00020907174939899728
0.00020832363308824687
0.00020667195424312624
0.00020406724111606044
0.00020051048521413505
0.00019607400491865597
0.0001909221877600477
0.00018532801774989255
0.00017967806469797913
0.0001744561325234782
0.00017019528319122917
0.00016739511188453425
0.00016641743004676995
0.0001673951086706485
0.00017019528531520578
0.0001744561325234782
0.00017967807146365678
0.00018532800793766098
0.0001909221877600477
0.00019607400468538432
0.00020051049000324218
0.00020406724111606044
0.00020667195454719269
0.0002083236326442791
0.00020907175399902708
0.00020899790790229525
0.00020820069098057838
0.00020678403396662712
0.0002087315254673072
0.0002102052188358097
0.00021103308745950775
0.0002110988997104319
0.00021028975580368857
0.00020850848942939674
0.00020569019572759385
0.00020182276666293997
0.00019697086248839646
0.00019130086604213592
0.00018510255003876953
0.00017879928490151462
0.00017293444081007239
0.00016812034702557324
0.0001649420469984111
0.0001638295676602197
0.00016494204806830997
0.00016812034611586121
0.00017293444081007239
0.00017879928538317412
0.0001851025501426994
0.00019130086604213592
0.00019697086219258055
0.00020182277751806682
0.00020569019572759385
0.00020850849061885461
0.00021028976014799962
0.00021109890323443002
0.00021103309062595632
0.0002102052189592322
0.0002087315254673072
0.0002103933735979474
0.0002119225829617839
0.0002127839346184849
0.00021285012804568093
0.00021199517706599403
0.00021010743182724113
0.0002071072035094792
0.00020296922914539287
0.00019774945165179013
0.0001916138444522489
0.00018486524172526482
0.00017795899437540727
0.00017149324041401253
0.00016615612612939294
0.00016261719071129148
0.00016137548035958667
0.00016261718709537548
0.0001661561323962697
0.00017149324041401253
0.0001779589876802796
0.00018486525551199103
0.0001916138444522489
0.0001977494486260682
0.00020296923129688976
0.0002071072035094792
0.0002101074288772417
0.00021199517590291675
0.0002128501278343626
0.0002127839369509649
0.00021192258313236598
0.0002103933735979474
0.00021173341483381316
0.0002133122428744935
0.0002142058784197611
0.00021427778759098063
0.00021339090048262598
0.00021142104056070656
0.0002082755236158601
0.00020391712629856066
0.00019839304167837182
0.00019186736273210935
0.00018465225079971492
0.0001772288010389461
0.00017024178761230918
0.00016444628901260086
0.00016058868500835448
0.00015923228339694408
0.00016058868560256143
0.00016444628928234
0.00017024178761230918
0.00017722880404194588
0.00018465225781200484
0.00019186736273210935
0.00019839304125539634
0.00020391712520660872
0.0002082755236158601
0.00021142104363144635
0.00021339089497382762
0.0002142777855551332
0.00021420587710315798
0.00021331224298979786
0.00021173341483381316
0.00021271829730573136
0.00021433644881948362
0.00021525699994917168
0.00021533643438670217
0.00021442926460138036
0.00021240166189945384
0.0002091507489150188
0.00020462968371337005
0.00019887830148704802
0.00019205823186762305
0.00018448760793723522
0.0001766663025964377
0.00016927458620443736
0.00016312014335687202
0.00015901130692792893
0.00015756412366558153
0.00015901130791984774
0.0001631201431257049
0.00016927458620443736
0.0001766663029487953
0.00018448760797449412
0.00019205823186762305
0.0001988783013075106
0.0002046296796533478
0.0002091507489150188
0.00021240166009073056
0.00021442925914522433
0.00021533643330326116
0.0002152569895921995
0.00021433644884988134
0.00021271829730573136
0.0002133210071925592
0.00021496445002604472
0.0002159028409462623
0.00021598836572995776
0.00021507020757202566
0.00021300849230539886
0.00020969386044246665
0.00020507317120872572
0.0001991813980173357
0.00019217815944374905
0.00018438481386762399
0.00017631264037149154
0.00016866403665229636
0.00016228035339415338
0.000158010267265801
0.00015650465475703726
0.0001580102667250414
0.00016228035960399404
0.00016866403665229636
0.00017631263754511837
0.0001843848206357131
0.00019217815944374905
0.0001991813976689347
0.00020507317002343395
0.00020969386044246665
0.00021300849135332775
0.0002150702065814046
0.00021598836500701907
0.00021590284409655434
0.00021496445025758043
0.0002133210071925592
0.00021352394548224457
0.00021517611254837944
0.00021612075276061834
0.00021620858677168453
0.0002152869799025571
0.00021321400914009307
0.0002098780696859846
0.00020522384985141766
0.00019928461436987852
0.0001922192097910558
0.0001843500114159747
0.00017619209723249244
0.00016845539560757678
0.00016199285279885008
0.00015766713899252147
0.0001561414528987465
0.00015766714017378144
0.00016199285870892568
0.00016845539560757678
0.00017619209264583402
0.00018435001200924994
0.0001922192097910558
0.00019928461964929432
0.00020522384587120222
0.0002098780696859846
0.00021321400825504103
0.00021528698923740792
0.00021620858567011453
0.00021612076095972068
0.0002151761278033424
0.00021352394548224457
0.0002133210081089325
0.00021496444980372348
0.00021590284082538002
0.00021598836582304928
0.00021507020715389797
0.00021300849227178948
0.00020969385976388107
0.00020507317847427348
0.00019918139799102126
0.00019217816706168538
0.00018438481847558513
0.00017631263782037982
0.00016866403655010193
0.00016228035707190397
0.00015801026719019576
0.00015650465485086092
0.0001580102671029176
0.00016228035953864863
0.00016866403655010193
0.00017631264321996986
0.00018438482643086472
0.00019217816706168538
0.0001991813977071039
0.00020507316821502503
0.00020969385976388107
0.00021300849133379937
0.0002150702066965933
0.00021598836530583953
0.00021590284375486038
0.00021496444995272576
0.0002133210081089325
0.00021271829731499283
0.00021433644861071333
0.00021525700001549382
0.00021533643430764234
0.00021442926463330486
0.00021240166182885276
0.00020915074813684275
0.00020462968365046993
0.00019887830156398642
0.00019205823170674935
0.000184487607166536
0.00017666630252693446
0.00016927458611186875
0.00016312014344698148
0.0001590113073279821
0.0001575641242849291
0.00015901130849177032
0.00016312014318783236
0.00016927458611186875
0.00017666630297823846
0.0001844876077773178
0.00019205823170674935
0.00019887830140885622
0.00020462967966893337
0.00020915074813684275
0.00021240166006236867
0.00021442925925353748
0.00021533643325868075
0.00021525698961263252
0.0002143364486993855
0.00021271829731499283
0.00021173341483944714
0.0002133122428805958
0.00021420587842637876
0.0002142777875980447
0.00021339090049011988
0.0002114210405686553
0.0002082755236241601
0.00020391712630716752
0.00019839304168723856
0.00019186736274114276
0.000184652250808921
0.00017722880104830462
0.0001702417876217416
0.00016444628902212218
0.00016058868501793165
0.0001592322834065145
0.00016058868561207636
0.00016444628929185802
0.0001702417876217416
0.00017722880405131688
0.00018465225782121194
0.00019186736274114276
0.0001983930412642697
0.00020391712521521249
0.0002082755236241601
0.00021142104363936967
0.0002133908949813444
0.0002142777855622206
0.0002142058771097673
0.00021331224299589175
0.00021173341483944714
0.0002103933732903556
0.00021192258305490513
0.00021278393447987163
0.00021285012804538465
0.0002119951761903298
0.00021010743188794645
0.00020710720396535203
0.00020296922947726616
0.00019774945001494324
0.0001916138384405847
0.00018486524989571183
0.00017795899459047322
0.0001714932439115419
0.00016615612618091786
0.00016261719105842748
0.0001613754804717821
0.000162617187640884
0.00016615613231014148
0.0001714932439115419
0.00017795899160053105
0.00018486525468406703
0.0001916138384405847
0.00019774944990287843
0.00020296923137376688
0.00020710720396535203
0.0002101074287961699
0.00021199517588993167
0.00021285012766623348
0.0002127839368538538
0.00021192258309262797
0.0002103933732903556
0.0002087315255344418
0.0002102052188219845
0.00021103308755776156
0.00021109889992683127
0.000210289755790497
0.0002085084894216
0.0002056901956599483
0.00020182276646932317
0.0001969708623320478
0.00019130086602110687
0.00018510254902339834
0.00017879928490151993
0.00017293444066678555
0.00016812034707001296
0.00016494204700169836
0.00016382959098140072
0.0001649420476825311
0.00016812034605106336
0.00017293444066678555
0.0001787992854608613
0.00018510255009751014
0.00019130086602110687
0.00019697086224639593
0.00020182277743178165
0.0002056901956599483
0.0002085084906350138
0.00021028976004355197
0.00021109890345195702
0.0002110330904857518
0.00021020521893123773
0.0002087315255344418
0.000206784033976915
0.00020820068964081084
0.0002089979088613653
0.00020907174941204218
0.0002083236331022059
0.00020667195425786914
0.00020406724113153783
0.000200510485230317
0.00019607400493525906
0.0001909221877771761
0.00018532801776727
0.0001796780647155727
0.00017445613254130036
0.0001701952832091795
0.0001673951119025002
0.00016641743006477145
0.0001673951086886223
0.00017019528533313298
0.00017445613254130036
0.00017967807148126317
0.00018532800795506392
0.0001909221877771761
0.00019607400470198584
0.00020051049001942292
0.00020406724113153783
0.00020667195456193735
0.00020832363265825955
0.00020907175401206458
0.0002089979079144179
0.0002082006909917667
0.000206784033976915
0.00020458654644029696
0.0002059485027433984
0.00020672111200679486
0.0002068134103185233
0.00020614162839040424
0.0002046398584102091
0.00020227362618417723
0.00019905599880162435
0.00019506497307401923
0.00019046016343705704
0.00018549443473531092
0.00018051457371672484
0.00017594331941409375
0.00017223584566375673
0.00016981046300861845
0.00016896574971472856
0.00016981046447034107
0.00017223584686686162
0.00017594331941409375
0.000180514578598308
0.00018549443784417522
0.00019046016343705704
0.00019506497894795116
0.00019905599806557527
0.00020227362618417723
0.0002046398591256989
0.00020614163388325634
0.0002068134100137086
0.0002067211114062841
0.00020594850215876722
0.00020458654644029696
0.00020217157669970187
0.00020348397571250514
0.0002042400992643671
0.00020436199884873272
0.00020378046912637374
0.00020244462809681761
0.00020033380787702875
0.00019747123285140903
0.00019393818036723143
0.00018988673647726327
0.00018554716402444292
0.00018122538747627562
0.0001772846267201812
0.0001741070965273178
0.00017203751028168308
0.00017131842042143676
0.00017203750974210526
0.00017410710134412927
0.0001772846267201812
0.00018122539508828612
0.00018554715917712828
0.00018988673647726327
0.00019393818040533414
0.00019747122071991186
0.00020033380787702875
0.00020244462882279264
0.0002037804689853227
0.00020436199501785047
0.0002042400981109045
0.00020348398438450624
0.00020217157669970187
0.00019956680478439308
0.0002008365080096862
0.0002015850132352619
0.00020174698920467015
0.00020126694602782579
0.00020010771468822856
0.0001982606110555286
0.00019575670971717297
0.00019267806460235103
0.00018916681932532967
0.00018542933806906065
0.0001817313886166705
0.00017838047684293624
0.00017569326050412433
0.00017395009583008283
0.00017334573480420702
0.00017395009593097218
0.00017569326573666698
0.00017838047684293624
0.0001817313813083956
0.00018542933727152882
0.00018916681932532967
0.00019267806944899902
0.00019575670909129938
0.0001982606110555286
0.00020010771521044305
0.00020126694020352752
0.00020174698959219645
0.00020158501210384327
0.00020083651332816188
0.00019956680478439308
0.00019679465888957723
0.00019802900155518473
0.0001987783046403424
0.00019898901823582485
0.00019861806834316063
0.0001976402617331494
0.0001960567610422673
0.00019390407544567174
0.00019126266324469274
0.00018826307947589148
0.0001850875505820693
0.00018196387301831163
0.0001791492863559083
0.00017690319802152565
0.00017545147150318057
0.00017494913029852916
0.00017545147146779506
0.00017690319659690137
0.0001791492863559083
0.0001819638732353232
0.00018508755038038104
0.00018826307947589148
0.00019126266401072703
0.0001939040867467358
0.0001960567610422673
0.00019764026264735966
0.00019861806794893474
0.00019898901770183653
0.00019877830363462904
0.00019802899241389195
0.00019679465888957723
0.00019387267526751773
0.00019507851420826227
0.00019583565290475264
0.000196101134710447
0.0001958428060710816
0.00019504546667165228
0.00019371788133055253
0.00019189976647079597
0.00018966802603497841
0.000187140707225496
0.00018447663433294775
0.0001818689327720728
0.00017953065445407937
0.00017767259105192155
0.0001764754383636513
0.00017606189226463916
0.00017647543921501255
0.00017767258966159522
0.00017953065445407937
0.00018186893030783314
0.00018447663399708477
0.000187140707225496
0.00018966802675791916
0.00019189976109357406
0.00019371788133055253
0.00019504546673141144
0.0001958428054064479
0.0001961011407808155
0.0001958356466819535
0.0001950785058919061
0.00019387267526751773
0.0001908146282613779
0.00019199761186656624
0.0001927675971321108
0.0001930909175046332
0.00019294462135355613
0.0001923215801541399
0.00019123602255399725
0.0001897289306472791
0.00018787228745656282
0.00018577132663599223
0.00018356299293723034
0.0001814095632788961
0.00017948623081552825
0.00017796327008112443
0.00017698460536155246
0.0001766470035682692
0.0001769846056747039
0.00017796326795197019
0.00017948623081552825
0.00018140955819557358
0.0001835629933988362
0.00018577132663599223
0.00018787228761663505
0.00018972892944708693
0.00019123602255399725
0.00019232158109171326
0.00019294462702982743
0.00019309091709066064
0.00019276759621128902
0.000191997615080305
0.0001908146282613779
0.00018763179828540133
0.00018879597723364192
0.00018958155287006882
0.00018996277592231098
0.0001899242437912691
0.0001894650446234914
0.00018860304935954867
0.00018737890491772556
0.00018585881160617548
0.00018413551082524016
0.000182326070151275
0.00018056590316721324
0.00017899838041058388
0.00017776052936688963
0.00017696673419234096
0.00017669321258258178
0.00017696673381002772
0.00017776052546367299
0.00017899838041058388
0.0001805659090172745
0.00018232607011184527
0.00018413551082524016
0.00018585881166231853
0.00018737889308621382
0.00018860304935954867
0.00018946504573577464
0.00018992424388761768
0.00018996277746599673
0.000189581560931125
0.00018879598562629037
0.00018763179828540133
0.0001843342160223409
0.00018548200211201686
0.00018628362047911495
0.0001867201194399567
0.0001867820490536493
0.00018647306428728967
0.00018581317393692002
0.00018484150009705945
0.0001836180835375914
0.00018222388370568656
0.00018075830857276578
0.00017933387192587037
0.00017806748589116743
0.0001770693002044749
0.0001764301420833791
0.00017621008201040443
0.00017643014206593314
0.0001770692952080958
0.00017806748589116743
0.0001793338714558669
0.00018075830554218356
0.00018222388370568656
0.00018361809776308273
0.00018484149885291187
0.00018581317393692002
0.0001864730584008546
0.00018678204558973463
0.00018672011919651006
0.0001862836145185698
0.00018548200359502686
0.0001843342160223409
0.00018093163669641427
0.0001820636481534897
0.00018287998543473113
0.00018336694795433395
0.00018351977756775464
0.0001833453446081432
0.00018286458306596652
0.00018211432264208672
0.0001811483808198996
0.00018003690741629644
0.00017886398772750078
0.0001777227904581447
0.00017670857558618362
0.00017590984470320625
0.0001753988521425717
0.0001752230161721842
0.0001753988568458608
0.00017590984222514466
0.00017670857558618362
0.00017772278528790366
0.0001788639800312063
0.00018003690741629644
0.00018114838312526497
0.00018211433263383588
0.00018286458306596652
0.00018334534635603396
0.00018351977768556226
0.0001833669487121567
0.00018287998461263683
0.00018206363939587684
0.00018093163669641427
0.0001933066182980165
0.0001946695501368594
0.00019566244157725993
0.00019626234793044482
0.0001964566682218304
0.00019624687488580773
0.0001956521044162528
0.00019471226690960693
0.00019349012278841062
0.0001920713771212704
0.00019056226973532888
0.00018908363423395988
0.00018776171181015983
0.00018671576475941278
0.00018604443766219474
0.0001858130391455245
0.0001860444372031142
0.00018671576422575107
0.00018776171181015983
0.00018908363392776317
0.00019056226814304224
0.0001920713771212704
0.00019349012055132353
0.0001947122656973943
0.0001956521044162528
0.00019624687369914178
0.00019645667872559137
0.00019626234772337448
0.00019566244023725056
0.0001946695470064293
0.0001933066182980165
0.00019716127697881155
0.00019855792076347103
0.00019954766492584708
0.00020009961598672316
0.0002001938334466442
0.0001998260590427026
0.00019901253165968563
0.00019779438260362115
0.00019624106721901672
0.00019445159184130646
0.00019255237950301595
0.00019069086158279765
0.0001890240713738292
0.00018770285703824288
0.0001868535801789287
0.00018656058933584827
0.0001868535795497728
0.00018770285738497366
0.0001890240713738292
0.00019069085673994307
0.00019255237739135834
0.00019445159184130646
0.00019624106536158113
0.00019779437801473073
0.00019901253165968563
0.00019982605904104737
0.00020019383415885065
0.00020009961516144828
0.00019954766389752084
0.00019855791863715664
0.00019716127697881155
0.00020091412430544854
0.000202348271066291
0.00020333622347914646
0.0002038373172373581
0.00020382224833898876
0.00020327882695744023
0.00020221827634243095
0.00020068139820768912
0.00019874379250807713
0.00019651866369407164
0.0001941556417443578
0.0001918339756143647
0.00018974887278673836
0.000188091262143931
0.00018702333391969878
0.00018665447141791598
0.00018702333437363734
0.00018809126188915572
0.00018974887278673836
0.00019183397657538805
0.00019415564076067764
0.00019651866369407164
0.00019874380069048655
0.00020068139696018166
0.00020221827634243095
0.0002032788261038555
0.0002038222431105844
0.00020383731654930555
0.00020333622279428522
0.00020234828006780365
0.00020091412430544854
0.00020455526270006906
0.0002060331435375347
0.00020702349259524186
0.00020747435733079893
0.00020734433506665556
0.00020661078436760808
0.00020527731152543606
0.00020338215332190755
0.00020100578034101178
0.00019827600140352557
0.00019536850565500785
0.00019250004761038166
0.00018991251699049488
0.00018784732794078455
0.00018651285352122148
0.00018605118109823188
0.00018651285313443948
0.00018784732756529964
0.00018991251699049488
0.00019250005250784816
0.00019536850447718688
0.00019827600140352557
0.0002010057804030995
0.0002033821525286708
0.00020527731152543606
0.00020661078382271835
0.0002073443245553461
0.00020747436270556388
0.00020702337784817153
0.0002060331455102624
0.00020455526270006906
0.00020807463886629555
0.0002096050324570529
0.00021060567397288192
0.00021101061599638975
0.000210764534435989
0.0002098311840537261
0.00020820334002162236
0.0002059137483705275
0.0002030456462573292
0.00019974111053083912
0.00019620411843768886
0.0001926947540852464
0.0001895111288533342
0.0001869575167550619
0.00018530131422850728
0.0001847272069324114
0.00018530131540680277
0.00018695751527615014
0.0001895111288533342
0.0001926947546983441
0.0001962041174503567
0.00019974111053083912
0.00020304564001694163
0.00020591375116900257
0.00020820334002162236
0.00020983118408874854
0.00021076454056987982
0.0002110106156887143
0.00021060567300293238
0.0002096050286816741
0.00020807463886629555
0.00021146069124130105
0.00021305465564099393
0.00021407639774128972
0.00021444444895072704
0.000214086631687574
0.00021295005243986937
0.0002110131282948414
0.00020829944874225666
0.0002048920449554614
0.00020094577798999156
0.00019669425887786792
0.00019244621565172847
0.00018856610241487428
0.00018543525821177227
0.0001833956544308206
0.0001826869115874572
0.00018339565458913912
0.00018543525379296463
0.00018856610241487428
0.00019244621636919148
0.00019669425760606208
0.00020094577798999156
0.0002048920382396406
0.000208299447683217
0.0002110131282948414
0.000212950052143572
0.00021408664146106156
0.0002144444431897254
0.0002140763967884926
0.0002130546544834815
0.00021146069124130105
0.00021469841528329905
0.0002163685955772115
0.00021742508320407326
0.00021776925769374688
0.00021730976663861373
0.00021597393031848956
0.000213722089045197
0.0002105645661590295
0.0002065802773982611
0.00020193414590747035
0.00019688926635507136
0.0001918072278319803
0.00018712869199297697
0.0001833275067567928
0.00018083839568131142
0.0001799711035570681
0.00018083839595469794
0.0001833275043662447
0.00018712869199297697
0.0001918072225238699
0.00019688927073185046
0.00020193414590747035
0.00020658027764230508
0.00021056455866453152
0.000213722089045197
0.00021597393043771998
0.0002173097606485809
0.00021776925303158097
0.00021742508204322848
0.00021636859392440406
0.00021469841528329905
0.00021776717429270527
0.00021952655543953345
0.00022063299235840664
0.00022096951878920832
0.00022042375438006452
0.0002189005238030381
0.00021633847905721168
0.0002127304455446776
0.00020814661845489207
0.00020275798787120075
0.0001968551921517985
0.00019085488418668978
0.00018528245230665135
0.00018071986448839534
0.00017771457105816174
0.00017666408103718896
0.00017771457062940778
0.00018071986195119578
0.00018528245230665135
0.00019085488426386324
0.0001968551915877799
0.00020275798787120075
0.00020814663070566883
0.00021273044427772006
0.00021633847905721168
0.00021890052374070633
0.0002204237443344234
0.00022096951872218045
0.00022063299141509166
0.0002195265604942546
0.00021776717429270527
0.00022063880522603778
0.00022249899739926136
0.00022367036686764266
0.00022401709486014033
0.00022340459505760057
0.00022171323143649376
0.0002188570005935308
0.00021480727529090996
0.00020962074661602325
0.0002034694406345378
0.0001966677188937678
0.0001896867586381026
0.0001831424342466186
0.00017773870748346215
0.00017415617995366424
0.00017289943804211298
0.00017415618207807456
0.00017773870542388506
0.0001831424342466186
0.00018968675816407907
0.00019666771914032623
0.0002034694406345378
0.00020962074828342794
0.0002148072795645111
0.0002188570005935308
0.0002217132310722679
0.0002234045952800325
0.00022401709468370664
0.00022367036554167343
0.00022249899920132575
0.00022063880522603778
0.0002232766075253662
0.00022524582084681525
0.00022649469342430026
0.00022686887232529465
0.00022621129391437348
0.0002243769391786837
0.00022125330919088294
0.00021678723543336727
0.00021101756431709707
0.0002041120289605881
0.00019640312862672925
0.0001884130548777061
0.00018084963313974735
0.00017454879473551046
0.00017034231455035294
0.00016886095473303764
0.00017034231492858782
0.00017454879440999678
0.00018084963313974735
0.00018841306194411904
0.00019640312968650844
0.0002041120289605881
0.00021101756663446502
0.0002167872339246427
0.00022125330919088294
0.00022437694527762986
0.00022621130393698957
0.0002268688716794129
0.00022649469815269656
0.0002252458169764743
0.0002232766075253662
0.00022563579374109807
0.00022771681620614338
0.00022905108025640867
0.00022946675946806144
0.00022878523524520132
0.0002268364849289098
0.00022348112616291582
0.00021863985481240445
0.00021233062634650086
0.0002047119275320101
0.00019612805959841635
0.0001871456829792412
0.00017856098330207545
0.00017134512137343262
0.00016649314964868473
0.0001647775391447595
0.00016649315084543725
0.00017134512123262617
0.00017856098330207545
0.00018714567800750317
0.00019612805735188006
0.0002047119275320101
0.00021233062789919054
0.00021863986018216437
0.00022348112616291582
0.0002268364849377458
0.00022878523991934664
0.00022946676405848673
0.0002290510834399425
0.00022771681632910394
0.00022563579374109807
0.0002276658577898679
0.00022985440295483173
0.0002312751703241617
0.00023174079875017971
0.00023105312236358912
0.00022901899471413622
0.00022547351407379093
0.00022031167397150192